Li32 Ge4 Se24
 1.00 
 10.657818 0.0 -0.518029 
 0.0 10.8507 0.0 
 0.0 0.0 10.644 
 Ge Li Se
 4 32 24
direct
 0.01685600  0.16887700  0.69846400 
 0.41981300  0.24336800  0.92530600 
 0.99237300  0.71024000  0.78173400 
 0.43909800  0.86498200  0.15300200 
 0.93306000  0.24149200  0.21627500 
 0.63024600  0.35269900  0.59226200 
 0.05553200  0.72349800  0.20646100 
 0.54805200  0.71424800  0.57484500 
 0.66739900  0.01259200  0.19642900 
 0.78650400  0.54284000  0.80599000 
 0.50242300  0.83001900  0.86749900 
 0.28166400  0.42516700  0.29400800 
 0.17053900  0.64840700  0.99603500 
 0.86156700  0.75392300  0.98315200 
 0.19300500  0.38306700  0.98902200 
 0.64942500  0.20238400  0.99131600 
 0.44502000  0.05091600  0.77636100 
 0.75529500  0.00036100  0.75726300 
 0.70324600  0.48199500  0.27349900 
 0.81337300  0.38552500  0.99000000 
 0.38475400  0.13743600  0.13622600 
 0.18510700  0.96113700  0.25667800 
 0.33557700  0.43456800  0.65237400 
 0.03624700  0.40771100  0.77120200 
 0.45320200  0.60894300  0.26572400 
 0.20176500  0.19655400  0.53175500 
 0.50572800  0.26892900  0.37109600 
 0.81498800  0.16209500  0.48172100 
 0.28565900  0.73318100  0.50999300 
 0.14374500  0.94580900  0.71569600 
 0.73895800  0.64366200  0.54548900 
 0.85961500  0.89530400  0.41184900 
 0.01582200  0.04290300  0.03886800 
 0.00379500  0.48140900  0.46731200 
 0.49111700  0.97213400  0.52050700 
 0.49628300  0.54352200  0.99079300 
 0.15747200  0.19940200  0.11064500 
 0.14069600  0.60774200  0.61455200 
 0.63416500  0.12135700  0.63149800 
 0.60694500  0.69165000  0.10734000 
 0.89623100  0.91757900  0.17051000 
 0.85244400  0.37022600  0.60860700 
 0.37968200  0.86611200  0.69005400 
 0.41317600  0.39750000  0.12509700 
 0.89511000  0.17076400  0.89370300 
 0.87642700  0.62238800  0.33551000 
 0.34641800  0.08179300  0.37927400 
 0.32672200  0.62592600  0.87787600 
 0.15828900  0.88127900  0.95151100 
 0.10391400  0.31478100  0.37195300 
 0.63175800  0.85733200  0.38263600 
 0.60691900  0.38230700  0.86269200 
 0.27323000  0.25010200  0.76419600 
 0.73931700  0.76605200  0.73564400 
 0.68768300  0.23749000  0.25383800 
 0.28822800  0.75370300  0.25657300 
 0.02269200  0.01977800  0.53655500 
 0.49091600  0.50916200  0.46725400 
 0.95248600  0.55721600  0.96769100 
 0.52951300  0.02549300  0.00248500 
 
 22 22 22 
 0.0000000000e+00  0.0000000000e+00  0.0000000000e+00  0.0000000000e+00  0.0000000000e+00 
 8.9820333449e-01  8.9820333449e-01  0.0000000000e+00  0.0000000000e+00  0.0000000000e+00 
 0.0000000000e+00  0.0000000000e+00  0.0000000000e+00  0.0000000000e+00  0.0000000000e+00 
 3.5928133379e+00  2.6946100035e+00  0.0000000000e+00  0.0000000000e+00  0.0000000000e+00 
 0.0000000000e+00  0.0000000000e+00  0.0000000000e+00  0.0000000000e+00  0.0000000000e+00 
 0.0000000000e+00  0.0000000000e+00  1.7964066690e+00  0.0000000000e+00  0.0000000000e+00 
 0.0000000000e+00  0.0000000000e+00  0.0000000000e+00  0.0000000000e+00  0.0000000000e+00 
 0.0000000000e+00  0.0000000000e+00  7.1856266759e+00  4.4910166724e+00  0.0000000000e+00 
 0.0000000000e+00  0.0000000000e+00  0.0000000000e+00  0.0000000000e+00  0.0000000000e+00 
 0.0000000000e+00  0.0000000000e+00  0.0000000000e+00  0.0000000000e+00  0.0000000000e+00 
 4.4910166724e+00  2.6946100035e+00  0.0000000000e+00  0.0000000000e+00  0.0000000000e+00 
 0.0000000000e+00  0.0000000000e+00  0.0000000000e+00  0.0000000000e+00  7.1856266759e+00 
 5.3892200069e+00  0.0000000000e+00  0.0000000000e+00  0.0000000000e+00  0.0000000000e+00 
 0.0000000000e+00  0.0000000000e+00  0.0000000000e+00  0.0000000000e+00  0.0000000000e+00 
 0.0000000000e+00  4.4910166724e+00  2.7844303369e+01  2.0658676693e+01  1.7964066690e+00 
 0.0000000000e+00  0.0000000000e+00  0.0000000000e+00  0.0000000000e+00  8.9820333449e-01 
 1.7964066690e+01  3.3233523376e+01  1.2574846683e+01  1.7964066690e+00  0.0000000000e+00 
 0.0000000000e+00  0.0000000000e+00  0.0000000000e+00  0.0000000000e+00  0.0000000000e+00 
 0.0000000000e+00  0.0000000000e+00  8.9820333449e-01  4.4910166724e+00  6.9161656755e+01 
 9.5209553456e+01  3.2335320041e+01  3.5928133379e+00  0.0000000000e+00  8.9820333449e-01 
 8.9820333449e-01  8.9820333449e+00  6.0179623411e+01  6.1976030080e+01  8.0838300104e+00 
 0.0000000000e+00  0.0000000000e+00  0.0000000000e+00  0.0000000000e+00  0.0000000000e+00 
 0.0000000000e+00  1.7964066690e+00  0.0000000000e+00  0.0000000000e+00  6.2874233414e+00 
 9.8802366793e+00  2.6946100035e+01  4.0419150052e+01  8.9820333449e+00  9.8802366793e+00 
 2.6946100035e+00  3.5928133379e+00  7.1856266759e+00  1.5269456686e+01  2.9640710038e+01 
 3.2335320041e+01  1.2574846683e+01  3.5928133379e+00  2.6946100035e+00  8.9820333449e-01 
 0.0000000000e+00  0.0000000000e+00  8.9820333449e-01  8.0838300104e+00  6.2874233414e+00 
 1.4371253352e+01  1.3473050017e+01  1.7065863355e+01  3.5928133379e+00  8.9820333449e-01 
 0.0000000000e+00  0.0000000000e+00  0.0000000000e+00  8.9820333449e-01  1.7964066690e+00 
 3.5928133379e+00  8.9820333449e+00  8.9820333449e+00  1.9760473359e+01  1.9760473359e+01 
 2.7844303369e+01  1.3473050017e+01  3.5928133379e+00  8.9820333449e-01  8.9820333449e-01 
 4.4910166724e+00  1.8862270024e+01  2.8742506704e+01  4.2215556721e+01  8.0838300104e+00 
 0.0000000000e+00  0.0000000000e+00  0.0000000000e+00  0.0000000000e+00  0.0000000000e+00 
 0.0000000000e+00  0.0000000000e+00  0.0000000000e+00  0.0000000000e+00  0.0000000000e+00 
 1.9760473359e+01  6.4670640083e+01  6.1976030080e+01  1.7065863355e+01  7.1856266759e+00 
 0.0000000000e+00  0.0000000000e+00  0.0000000000e+00  8.9820333449e-01  8.0838300104e+00 
 1.1676643348e+01  0.0000000000e+00  0.0000000000e+00  0.0000000000e+00  0.0000000000e+00 
 0.0000000000e+00  0.0000000000e+00  0.0000000000e+00  0.0000000000e+00  0.0000000000e+00 
 0.0000000000e+00  0.0000000000e+00  1.2574846683e+01  3.8622743383e+01  2.2455083362e+01 
 1.7964066690e+00  0.0000000000e+00  0.0000000000e+00  0.0000000000e+00  0.0000000000e+00 
 0.0000000000e+00  0.0000000000e+00  3.5928133379e+00  1.7964066690e+00  0.0000000000e+00 
 0.0000000000e+00  0.0000000000e+00  0.0000000000e+00  0.0000000000e+00  0.0000000000e+00 
 0.0000000000e+00  0.0000000000e+00  0.0000000000e+00  0.0000000000e+00  8.0838300104e+00 
 1.6167660021e+01  8.9820333449e-01  0.0000000000e+00  0.0000000000e+00  0.0000000000e+00 
 0.0000000000e+00  0.0000000000e+00  0.0000000000e+00  0.0000000000e+00  1.7964066690e+00 
 0.0000000000e+00  0.0000000000e+00  0.0000000000e+00  0.0000000000e+00  0.0000000000e+00 
 0.0000000000e+00  0.0000000000e+00  0.0000000000e+00  0.0000000000e+00  0.0000000000e+00 
 0.0000000000e+00  5.3892200069e+00  2.6946100035e+00  0.0000000000e+00  0.0000000000e+00 
 0.0000000000e+00  0.0000000000e+00  0.0000000000e+00  0.0000000000e+00  0.0000000000e+00 
 0.0000000000e+00  0.0000000000e+00  1.7964066690e+00  0.0000000000e+00  0.0000000000e+00 
 0.0000000000e+00  0.0000000000e+00  0.0000000000e+00  0.0000000000e+00  0.0000000000e+00 
 0.0000000000e+00  0.0000000000e+00  0.0000000000e+00  4.4910166724e+00  4.4910166724e+00 
 8.9820333449e-01  0.0000000000e+00  0.0000000000e+00  0.0000000000e+00  0.0000000000e+00 
 0.0000000000e+00  0.0000000000e+00  0.0000000000e+00  3.5928133379e+00  7.1856266759e+00 
 0.0000000000e+00  0.0000000000e+00  0.0000000000e+00  0.0000000000e+00  0.0000000000e+00 
 0.0000000000e+00  0.0000000000e+00  0.0000000000e+00  0.0000000000e+00  0.0000000000e+00 
 3.5928133379e+00  2.6946100035e+00  0.0000000000e+00  0.0000000000e+00  0.0000000000e+00 
 0.0000000000e+00  0.0000000000e+00  0.0000000000e+00  0.0000000000e+00  0.0000000000e+00 
 1.4371253352e+01  1.0778440014e+01  2.6946100035e+00  0.0000000000e+00  0.0000000000e+00 
 0.0000000000e+00  0.0000000000e+00  0.0000000000e+00  0.0000000000e+00  0.0000000000e+00 
 0.0000000000e+00  0.0000000000e+00  9.8802366793e+00  3.5928133379e+00  0.0000000000e+00 
 0.0000000000e+00  0.0000000000e+00  0.0000000000e+00  0.0000000000e+00  0.0000000000e+00 
 8.9820333449e-01  1.2574846683e+01  6.8263453421e+01  2.1556880028e+01  8.9820333449e-01 
 0.0000000000e+00  0.0000000000e+00  0.0000000000e+00  0.0000000000e+00  0.0000000000e+00 
 0.0000000000e+00  0.0000000000e+00  0.0000000000e+00  0.0000000000e+00  6.2874233414e+00 
 2.8742506704e+01  2.0658676693e+01  0.0000000000e+00  0.0000000000e+00  0.0000000000e+00 
 1.7964066690e+00  8.9820333449e-01  1.1676643348e+01  5.6586810073e+01  9.7005960124e+01 
 3.3233523376e+01  3.5928133379e+00  0.0000000000e+00  0.0000000000e+00  0.0000000000e+00 
 0.0000000000e+00  0.0000000000e+00  0.0000000000e+00  0.0000000000e+00  0.0000000000e+00 
 2.6946100035e+00  7.1856266759e+00  4.1317353386e+01  5.9281420076e+01  9.8802366793e+00 
 8.9820333449e-01  1.7964066690e+00  5.3892200069e+00  6.2874233414e+00  8.0838300104e+00 
 2.1556880028e+01  4.6706573393e+01  2.5149693366e+01  1.4371253352e+01  8.9820333449e-01 
 8.9820333449e-01  8.9820333449e-01  8.9820333449e-01  0.0000000000e+00  0.0000000000e+00 
 8.9820333449e-01  2.6946100035e+00  9.8802366793e+00  1.6167660021e+01  3.8622743383e+01 
 1.5269456686e+01  1.4371253352e+01  6.2874233414e+00  4.4910166724e+00  8.9820333449e-01 
 0.0000000000e+00  8.9820333449e-01  1.7964066690e+00  9.8802366793e+00  8.9820333449e+00 
 1.0778440014e+01  1.0778440014e+01  1.0778440014e+01  5.3892200069e+00  7.1856266759e+00 
 3.5928133379e+00  1.2574846683e+01  1.8862270024e+01  2.1556880028e+01  2.1556880028e+01 
 1.3473050017e+01  0.0000000000e+00  2.6946100035e+00  2.6946100035e+00  8.9820333449e-01 
 0.0000000000e+00  0.0000000000e+00  0.0000000000e+00  0.0000000000e+00  0.0000000000e+00 
 8.9820333449e-01  5.3892200069e+00  3.0538913373e+01  3.2335320041e+01  1.6167660021e+01 
 6.2874233414e+00  8.9820333449e-01  8.9820333449e-01  4.4910166724e+00  1.5269456686e+01 
 3.9520946717e+01  3.0538913373e+01  7.1856266759e+00  8.9820333449e-01  0.0000000000e+00 
 0.0000000000e+00  0.0000000000e+00  0.0000000000e+00  0.0000000000e+00  0.0000000000e+00 
 0.0000000000e+00  0.0000000000e+00  8.9820333449e-01  2.6946100035e+00  1.9760473359e+01 
 1.9760473359e+01  0.0000000000e+00  0.0000000000e+00  0.0000000000e+00  0.0000000000e+00 
 0.0000000000e+00  1.7964066690e+00  6.2874233414e+00  1.8862270024e+01  3.5928133379e+00 
 1.7964066690e+00  0.0000000000e+00  0.0000000000e+00  0.0000000000e+00  0.0000000000e+00 
 0.0000000000e+00  0.0000000000e+00  0.0000000000e+00  0.0000000000e+00  0.0000000000e+00 
 0.0000000000e+00  7.1856266759e+00  5.3892200069e+00  0.0000000000e+00  0.0000000000e+00 
 0.0000000000e+00  0.0000000000e+00  0.0000000000e+00  0.0000000000e+00  8.9820333449e-01 
 8.0838300104e+00  0.0000000000e+00  0.0000000000e+00  0.0000000000e+00  0.0000000000e+00 
 0.0000000000e+00  0.0000000000e+00  0.0000000000e+00  0.0000000000e+00  0.0000000000e+00 
 0.0000000000e+00  0.0000000000e+00  8.9820333449e-01  2.6946100035e+00  0.0000000000e+00 
 0.0000000000e+00  0.0000000000e+00  0.0000000000e+00  0.0000000000e+00  0.0000000000e+00 
 0.0000000000e+00  8.9820333449e-01  4.4910166724e+00  1.7964066690e+00  0.0000000000e+00 
 0.0000000000e+00  0.0000000000e+00  0.0000000000e+00  0.0000000000e+00  0.0000000000e+00 
 0.0000000000e+00  0.0000000000e+00  0.0000000000e+00  0.0000000000e+00  8.9820333449e-01 
 8.9820333449e+00  8.9820333449e-01  0.0000000000e+00  0.0000000000e+00  0.0000000000e+00 
 0.0000000000e+00  0.0000000000e+00  0.0000000000e+00  0.0000000000e+00  2.6946100035e+00 
 1.7964066690e+00  0.0000000000e+00  0.0000000000e+00  0.0000000000e+00  0.0000000000e+00 
 0.0000000000e+00  0.0000000000e+00  0.0000000000e+00  0.0000000000e+00  0.0000000000e+00 
 0.0000000000e+00  8.9820333449e-01  2.6946100035e+00  0.0000000000e+00  0.0000000000e+00 
 0.0000000000e+00  0.0000000000e+00  0.0000000000e+00  0.0000000000e+00  0.0000000000e+00 
 0.0000000000e+00  1.5269456686e+01  2.1556880028e+01  8.9820333449e-01  0.0000000000e+00 
 0.0000000000e+00  0.0000000000e+00  0.0000000000e+00  0.0000000000e+00  0.0000000000e+00 
 0.0000000000e+00  0.0000000000e+00  0.0000000000e+00  0.0000000000e+00  6.2874233414e+00 
 4.4910166724e+00  0.0000000000e+00  0.0000000000e+00  0.0000000000e+00  0.0000000000e+00 
 0.0000000000e+00  0.0000000000e+00  1.7964066690e+00  4.9401183397e+01  5.5688606738e+01 
 0.0000000000e+00  0.0000000000e+00  0.0000000000e+00  0.0000000000e+00  0.0000000000e+00 
 0.0000000000e+00  0.0000000000e+00  0.0000000000e+00  0.0000000000e+00  0.0000000000e+00 
 0.0000000000e+00  8.9820333449e+00  2.2455083362e+01  2.6946100035e+00  0.0000000000e+00 
 0.0000000000e+00  0.0000000000e+00  0.0000000000e+00  8.9820333449e-01  1.1676643348e+01 
 7.5449080097e+01  3.1437116707e+01  8.9820333449e-01  0.0000000000e+00  0.0000000000e+00 
 0.0000000000e+00  0.0000000000e+00  0.0000000000e+00  0.0000000000e+00  0.0000000000e+00 
 0.0000000000e+00  0.0000000000e+00  0.0000000000e+00  1.4371253352e+01  4.7604776728e+01 
 1.6167660021e+01  0.0000000000e+00  0.0000000000e+00  1.7964066690e+00  6.2874233414e+00 
 1.6167660021e+01  6.5568843417e+01  9.0718536783e+01  1.8862270024e+01  5.3892200069e+00 
 0.0000000000e+00  0.0000000000e+00  0.0000000000e+00  0.0000000000e+00  0.0000000000e+00 
 8.9820333449e-01  0.0000000000e+00  0.0000000000e+00  8.9820333449e-01  2.6946100035e+00 
 5.3892200069e+00  8.9820333449e+00  8.9820333449e-01  3.5928133379e+00  0.0000000000e+00 
 8.9820333449e+00  2.2455083362e+01  3.5928133379e+01  4.4910166724e+01  3.7724540048e+01 
 1.3473050017e+01  1.0778440014e+01  5.3892200069e+00  7.1856266759e+00  7.1856266759e+00 
 1.7964066690e+00  2.6946100035e+00  5.3892200069e+00  3.5928133379e+00  4.4910166724e+00 
 1.7964066690e+00  4.4910166724e+00  0.0000000000e+00  8.9820333449e-01  0.0000000000e+00 
 0.0000000000e+00  0.0000000000e+00  8.9820333449e-01  4.4910166724e+00  1.0778440014e+01 
 8.9820333449e+00  1.8862270024e+01  2.3353286697e+01  3.5029930045e+01  3.0538913373e+01 
 3.9520946717e+01  4.0419150052e+01  7.1856266759e+00  4.4910166724e+00  1.2574846683e+01 
 1.7964066690e+01  2.9640710038e+01  2.6946100035e+01  1.7964066690e+00  0.0000000000e+00 
 0.0000000000e+00  0.0000000000e+00  0.0000000000e+00  0.0000000000e+00  0.0000000000e+00 
 1.7964066690e+00  1.7964066690e+00  1.7964066690e+00  3.5928133379e+00  1.7964066690e+01 
 7.4550876762e+01  9.4311350121e+01  2.8742506704e+01  1.7065863355e+01  0.0000000000e+00 
 0.0000000000e+00  8.9820333449e-01  5.3892200069e+00  5.3892200069e+00  1.4371253352e+01 
 0.0000000000e+00  0.0000000000e+00  0.0000000000e+00  0.0000000000e+00  0.0000000000e+00 
 0.0000000000e+00  0.0000000000e+00  0.0000000000e+00  0.0000000000e+00  0.0000000000e+00 
 3.5928133379e+00  3.0538913373e+01  8.8023926780e+01  5.2993996735e+01  6.2874233414e+00 
 8.9820333449e-01  0.0000000000e+00  0.0000000000e+00  0.0000000000e+00  0.0000000000e+00 
 2.6946100035e+00  8.9820333449e+00  8.9820333449e-01  0.0000000000e+00  0.0000000000e+00 
 0.0000000000e+00  0.0000000000e+00  0.0000000000e+00  0.0000000000e+00  0.0000000000e+00 
 0.0000000000e+00  0.0000000000e+00  5.3892200069e+00  2.3353286697e+01  4.2215556721e+01 
 6.2874233414e+00  0.0000000000e+00  0.0000000000e+00  0.0000000000e+00  0.0000000000e+00 
 0.0000000000e+00  0.0000000000e+00  0.0000000000e+00  8.9820333449e-01  5.3892200069e+00 
 0.0000000000e+00  0.0000000000e+00  0.0000000000e+00  0.0000000000e+00  0.0000000000e+00 
 0.0000000000e+00  0.0000000000e+00  0.0000000000e+00  0.0000000000e+00  0.0000000000e+00 
 1.2574846683e+01  1.7065863355e+01  8.9820333449e-01  0.0000000000e+00  0.0000000000e+00 
 0.0000000000e+00  0.0000000000e+00  0.0000000000e+00  0.0000000000e+00  0.0000000000e+00 
 8.9820333449e-01  4.4910166724e+00  0.0000000000e+00  0.0000000000e+00  0.0000000000e+00 
 0.0000000000e+00  0.0000000000e+00  0.0000000000e+00  0.0000000000e+00  0.0000000000e+00 
 0.0000000000e+00  0.0000000000e+00  5.3892200069e+00  8.9820333449e+00  0.0000000000e+00 
 0.0000000000e+00  0.0000000000e+00  0.0000000000e+00  0.0000000000e+00  0.0000000000e+00 
 0.0000000000e+00  0.0000000000e+00  9.8802366793e+00  1.2574846683e+01  1.7964066690e+00 
 0.0000000000e+00  0.0000000000e+00  0.0000000000e+00  0.0000000000e+00  0.0000000000e+00 
 0.0000000000e+00  0.0000000000e+00  0.0000000000e+00  0.0000000000e+00  8.9820333449e-01 
 4.4910166724e+00  8.9820333449e-01  0.0000000000e+00  0.0000000000e+00  0.0000000000e+00 
 0.0000000000e+00  0.0000000000e+00  0.0000000000e+00  1.7964066690e+00  2.9640710038e+01 
 3.7724540048e+01  4.4910166724e+00  0.0000000000e+00  0.0000000000e+00  0.0000000000e+00 
 0.0000000000e+00  0.0000000000e+00  0.0000000000e+00  0.0000000000e+00  0.0000000000e+00 
 0.0000000000e+00  3.5928133379e+00  3.5928133379e+00  2.6946100035e+00  0.0000000000e+00 
 0.0000000000e+00  0.0000000000e+00  0.0000000000e+00  0.0000000000e+00  8.9820333449e-01 
 1.7065863355e+01  7.9041893435e+01  3.8622743383e+01  7.1856266759e+00  0.0000000000e+00 
 0.0000000000e+00  0.0000000000e+00  0.0000000000e+00  0.0000000000e+00  0.0000000000e+00 
 0.0000000000e+00  0.0000000000e+00  0.0000000000e+00  1.7964066690e+00  1.0778440014e+01 
 2.1556880028e+01  4.4910166724e+00  0.0000000000e+00  0.0000000000e+00  8.9820333449e-01 
 5.3892200069e+00  1.9760473359e+01  6.1976030080e+01  1.2754487350e+02  5.1197590066e+01 
 6.2874233414e+00  0.0000000000e+00  0.0000000000e+00  0.0000000000e+00  0.0000000000e+00 
 0.0000000000e+00  0.0000000000e+00  0.0000000000e+00  0.0000000000e+00  0.0000000000e+00 
 1.7964066690e+00  1.4371253352e+01  2.4251490031e+01  1.8862270024e+01  8.9820333449e-01 
 0.0000000000e+00  1.7964066690e+00  2.5149693366e+01  2.8742506704e+01  5.4790403404e+01 
 4.4910166724e+01  3.6826336714e+01  1.3473050017e+01  4.4910166724e+00  8.0838300104e+00 
 1.2574846683e+01  2.6946100035e+00  8.9820333449e-01  2.6946100035e+00  0.0000000000e+00 
 2.6946100035e+00  0.0000000000e+00  5.3892200069e+00  5.3892200069e+00  9.8802366793e+00 
 2.6946100035e+00  0.0000000000e+00  0.0000000000e+00  8.9820333449e-01  8.9820333449e-01 
 8.0838300104e+00  8.9820333449e+00  2.2455083362e+01  1.6167660021e+01  1.6167660021e+01 
 2.1556880028e+01  3.1437116707e+01  2.8742506704e+01  1.6167660021e+01  6.2874233414e+00 
 1.2574846683e+01  2.5149693366e+01  6.2874233414e+00  1.7065863355e+01  1.7964066690e+00 
 0.0000000000e+00  0.0000000000e+00  0.0000000000e+00  0.0000000000e+00  0.0000000000e+00 
 0.0000000000e+00  0.0000000000e+00  0.0000000000e+00  2.6946100035e+00  3.5928133379e+00 
 1.6167660021e+01  3.8622743383e+01  6.3772436749e+01  3.3233523376e+01  1.5269456686e+01 
 1.7964066690e+00  2.6946100035e+00  1.3473050017e+01  2.7844303369e+01  3.0538913373e+01 
 9.8802366793e+00  5.3892200069e+00  0.0000000000e+00  0.0000000000e+00  0.0000000000e+00 
 0.0000000000e+00  0.0000000000e+00  0.0000000000e+00  0.0000000000e+00  0.0000000000e+00 
 0.0000000000e+00  8.9820333449e-01  1.3473050017e+01  5.9281420076e+01  5.3892200069e+01 
 8.9820333449e+00  8.9820333449e-01  0.0000000000e+00  0.0000000000e+00  8.9820333449e-01 
 5.3892200069e+00  1.2574846683e+01  1.1676643348e+01  0.0000000000e+00  0.0000000000e+00 
 0.0000000000e+00  0.0000000000e+00  0.0000000000e+00  0.0000000000e+00  0.0000000000e+00 
 0.0000000000e+00  0.0000000000e+00  0.0000000000e+00  8.9820333449e-01  1.3473050017e+01 
 4.2215556721e+01  1.2574846683e+01  0.0000000000e+00  1.7964066690e+00  0.0000000000e+00 
 0.0000000000e+00  0.0000000000e+00  0.0000000000e+00  3.5928133379e+00  8.0838300104e+00 
 2.6946100035e+00  0.0000000000e+00  0.0000000000e+00  0.0000000000e+00  0.0000000000e+00 
 0.0000000000e+00  0.0000000000e+00  0.0000000000e+00  0.0000000000e+00  0.0000000000e+00 
 0.0000000000e+00  8.9820333449e+00  2.0658676693e+01  3.5928133379e+00  0.0000000000e+00 
 0.0000000000e+00  0.0000000000e+00  0.0000000000e+00  0.0000000000e+00  0.0000000000e+00 
 0.0000000000e+00  4.4910166724e+00  0.0000000000e+00  0.0000000000e+00  0.0000000000e+00 
 0.0000000000e+00  0.0000000000e+00  0.0000000000e+00  0.0000000000e+00  0.0000000000e+00 
 0.0000000000e+00  0.0000000000e+00  0.0000000000e+00  8.9820333449e-01  1.7065863355e+01 
 3.5928133379e+00  0.0000000000e+00  0.0000000000e+00  0.0000000000e+00  0.0000000000e+00 
 0.0000000000e+00  0.0000000000e+00  8.9820333449e-01  8.0838300104e+00  4.4910166724e+00 
 0.0000000000e+00  0.0000000000e+00  0.0000000000e+00  0.0000000000e+00  0.0000000000e+00 
 0.0000000000e+00  0.0000000000e+00  0.0000000000e+00  0.0000000000e+00  0.0000000000e+00 
 0.0000000000e+00  8.0838300104e+00  8.9820333449e-01  0.0000000000e+00  0.0000000000e+00 
 0.0000000000e+00  0.0000000000e+00  0.0000000000e+00  0.0000000000e+00  1.7964066690e+00 
 2.9640710038e+01  2.6047896700e+01  2.6946100035e+00  0.0000000000e+00  0.0000000000e+00 
 0.0000000000e+00  0.0000000000e+00  0.0000000000e+00  0.0000000000e+00  0.0000000000e+00 
 0.0000000000e+00  0.0000000000e+00  0.0000000000e+00  6.2874233414e+00  3.5928133379e+00 
 0.0000000000e+00  0.0000000000e+00  0.0000000000e+00  0.0000000000e+00  0.0000000000e+00 
 1.7964066690e+00  2.6946100035e+00  3.9520946717e+01  5.5688606738e+01  7.1856266759e+00 
 8.9820333449e-01  8.9820333449e-01  0.0000000000e+00  0.0000000000e+00  0.0000000000e+00 
 0.0000000000e+00  0.0000000000e+00  0.0000000000e+00  0.0000000000e+00  0.0000000000e+00 
 1.7964066690e+00  1.4371253352e+01  8.0838300104e+00  2.6946100035e+00  0.0000000000e+00 
 0.0000000000e+00  0.0000000000e+00  2.6946100035e+00  7.1856266759e+00  1.4371253352e+01 
 1.1676643348e+01  5.3892200069e+00  1.7964066690e+00  8.9820333449e-01  0.0000000000e+00 
 0.0000000000e+00  0.0000000000e+00  0.0000000000e+00  0.0000000000e+00  0.0000000000e+00 
 0.0000000000e+00  0.0000000000e+00  1.7964066690e+00  7.1856266759e+00  8.0838300104e+00 
 1.7964066690e+00  8.9820333449e-01  1.3473050017e+01  1.7964066690e+01  8.9820333449e+00 
 1.7964066690e+00  2.6946100035e+00  1.7964066690e+00  8.0838300104e+00  2.6946100035e+00 
 0.0000000000e+00  0.0000000000e+00  0.0000000000e+00  2.6946100035e+00  8.9820333449e-01 
 0.0000000000e+00  0.0000000000e+00  0.0000000000e+00  0.0000000000e+00  0.0000000000e+00 
 0.0000000000e+00  8.9820333449e-01  4.4910166724e+00  8.9820333449e-01  1.7964066690e+01 
 6.4670640083e+01  2.6047896700e+01  3.5928133379e+00  8.9820333449e-01  0.0000000000e+00 
 1.7964066690e+00  8.9820333449e-01  3.5928133379e+00  9.8802366793e+00  1.7964066690e+00 
 8.0838300104e+00  1.1676643348e+01  0.0000000000e+00  0.0000000000e+00  0.0000000000e+00 
 0.0000000000e+00  0.0000000000e+00  0.0000000000e+00  0.0000000000e+00  0.0000000000e+00 
 0.0000000000e+00  2.6946100035e+00  2.6946100035e+01  8.0838300104e+00  8.9820333449e-01 
 0.0000000000e+00  2.6946100035e+00  0.0000000000e+00  3.5928133379e+00  2.6946100035e+01 
 3.1437116707e+01  1.6167660021e+01  1.6167660021e+01  3.5029930045e+01  3.3233523376e+01 
 2.5149693366e+01  1.7964066690e+00  8.9820333449e-01  0.0000000000e+00  0.0000000000e+00 
 0.0000000000e+00  0.0000000000e+00  0.0000000000e+00  0.0000000000e+00  1.7964066690e+00 
 3.5928133379e+00  0.0000000000e+00  0.0000000000e+00  8.9820333449e-01  7.1856266759e+00 
 1.8862270024e+01  3.2335320041e+01  1.0778440014e+01  4.4910166724e+00  8.9820333449e-01 
 6.2874233414e+00  3.5928133379e+01  4.7604776728e+01  1.5269456686e+01  8.9820333449e-01 
 0.0000000000e+00  0.0000000000e+00  0.0000000000e+00  0.0000000000e+00  0.0000000000e+00 
 0.0000000000e+00  0.0000000000e+00  8.9820333449e-01  8.9820333449e-01  0.0000000000e+00 
 8.9820333449e+00  1.5269456686e+01  1.6167660021e+01  9.8802366793e+00  4.4910166724e+00 
 2.6946100035e+00  0.0000000000e+00  0.0000000000e+00  4.4910166724e+00  1.2574846683e+01 
 1.1676643348e+01  8.9820333449e-01  0.0000000000e+00  0.0000000000e+00  0.0000000000e+00 
 0.0000000000e+00  0.0000000000e+00  0.0000000000e+00  0.0000000000e+00  8.9820333449e-01 
 8.9820333449e-01  4.4910166724e+00  3.9520946717e+01  4.9401183397e+01  8.9820333449e+00 
 0.0000000000e+00  0.0000000000e+00  0.0000000000e+00  0.0000000000e+00  0.0000000000e+00 
 0.0000000000e+00  8.9820333449e-01  1.0778440014e+01  2.6946100035e+00  0.0000000000e+00 
 0.0000000000e+00  0.0000000000e+00  0.0000000000e+00  0.0000000000e+00  0.0000000000e+00 
 0.0000000000e+00  0.0000000000e+00  0.0000000000e+00  8.9820333449e-01  2.3353286697e+01 
 4.3113760055e+01  8.9820333449e-01  0.0000000000e+00  8.9820333449e-01  0.0000000000e+00 
 0.0000000000e+00  0.0000000000e+00  0.0000000000e+00  2.6946100035e+00  8.9820333449e+00 
 8.0838300104e+00  0.0000000000e+00  0.0000000000e+00  0.0000000000e+00  0.0000000000e+00 
 0.0000000000e+00  0.0000000000e+00  0.0000000000e+00  0.0000000000e+00  0.0000000000e+00 
 0.0000000000e+00  4.4910166724e+00  1.2574846683e+01  1.7964066690e+00  0.0000000000e+00 
 0.0000000000e+00  0.0000000000e+00  0.0000000000e+00  0.0000000000e+00  0.0000000000e+00 
 8.9820333449e-01  1.9760473359e+01  3.4131726710e+01  2.6946100035e+00  0.0000000000e+00 
 0.0000000000e+00  0.0000000000e+00  0.0000000000e+00  0.0000000000e+00  0.0000000000e+00 
 0.0000000000e+00  0.0000000000e+00  0.0000000000e+00  0.0000000000e+00  1.7964066690e+00 
 8.9820333449e-01  0.0000000000e+00  0.0000000000e+00  0.0000000000e+00  0.0000000000e+00 
 0.0000000000e+00  0.0000000000e+00  8.9820333449e+00  1.9760473359e+01  3.8622743383e+01 
 5.3892200069e+00  1.7964066690e+00  0.0000000000e+00  0.0000000000e+00  0.0000000000e+00 
 0.0000000000e+00  0.0000000000e+00  0.0000000000e+00  0.0000000000e+00  0.0000000000e+00 
 0.0000000000e+00  8.9820333449e-01  2.6946100035e+00  1.7964066690e+00  0.0000000000e+00 
 0.0000000000e+00  0.0000000000e+00  8.9820333449e-01  1.7964066690e+00  7.1856266759e+00 
 1.4371253352e+01  1.2574846683e+01  8.9820333449e+00  8.9820333449e-01  0.0000000000e+00 
 0.0000000000e+00  0.0000000000e+00  0.0000000000e+00  0.0000000000e+00  0.0000000000e+00 
 0.0000000000e+00  0.0000000000e+00  0.0000000000e+00  4.4910166724e+00  2.0658676693e+01 
 1.1676643348e+01  0.0000000000e+00  0.0000000000e+00  6.2874233414e+00  9.8802366793e+00 
 1.6167660021e+01  1.0778440014e+01  7.1856266759e+00  5.3892200069e+00  8.9820333449e-01 
 0.0000000000e+00  0.0000000000e+00  8.9820333449e-01  0.0000000000e+00  0.0000000000e+00 
 0.0000000000e+00  0.0000000000e+00  0.0000000000e+00  0.0000000000e+00  0.0000000000e+00 
 4.4910166724e+00  1.7065863355e+01  9.8802366793e+00  1.7964066690e+00  1.7964066690e+00 
 2.6946100035e+00  2.0658676693e+01  1.4371253352e+01  6.2874233414e+00  8.9820333449e-01 
 3.5928133379e+00  4.4910166724e+00  0.0000000000e+00  4.4910166724e+00  1.4371253352e+01 
 3.5928133379e+00  0.0000000000e+00  0.0000000000e+00  0.0000000000e+00  0.0000000000e+00 
 0.0000000000e+00  0.0000000000e+00  0.0000000000e+00  0.0000000000e+00  0.0000000000e+00 
 0.0000000000e+00  0.0000000000e+00  8.9820333449e-01  4.4910166724e+00  7.1856266759e+00 
 7.1856266759e+00  8.9820333449e-01  0.0000000000e+00  0.0000000000e+00  8.9820333449e-01 
 8.9820333449e+00  5.4790403404e+01  2.6946100035e+01  1.5269456686e+01  8.9820333449e+00 
 3.5928133379e+00  4.4910166724e+00  8.9820333449e-01  0.0000000000e+00  0.0000000000e+00 
 0.0000000000e+00  0.0000000000e+00  0.0000000000e+00  0.0000000000e+00  0.0000000000e+00 
 0.0000000000e+00  1.7964066690e+00  5.3892200069e+00  8.9820333449e-01  8.9820333449e-01 
 8.9820333449e+00  1.1676643348e+01  2.0658676693e+01  1.4371253352e+01  2.0658676693e+01 
 1.8862270024e+01  2.6047896700e+01  3.5928133379e+01  1.7964066690e+01  0.0000000000e+00 
 0.0000000000e+00  0.0000000000e+00  0.0000000000e+00  0.0000000000e+00  0.0000000000e+00 
 0.0000000000e+00  0.0000000000e+00  0.0000000000e+00  0.0000000000e+00  0.0000000000e+00 
 8.9820333449e-01  4.4910166724e+00  1.9760473359e+01  2.3353286697e+01  1.6167660021e+01 
 8.9820333449e-01  1.7964066690e+00  4.4910166724e+00  9.8802366793e+00  2.7844303369e+01 
 2.6946100035e+01  5.3892200069e+00  8.9820333449e-01  0.0000000000e+00  0.0000000000e+00 
 0.0000000000e+00  0.0000000000e+00  0.0000000000e+00  0.0000000000e+00  0.0000000000e+00 
 0.0000000000e+00  0.0000000000e+00  1.7964066690e+00  2.4251490031e+01  5.5688606738e+01 
 1.9760473359e+01  3.5928133379e+00  0.0000000000e+00  0.0000000000e+00  0.0000000000e+00 
 0.0000000000e+00  2.6946100035e+00  1.9760473359e+01  8.9820333449e+00  1.7964066690e+00 
 0.0000000000e+00  0.0000000000e+00  0.0000000000e+00  0.0000000000e+00  0.0000000000e+00 
 0.0000000000e+00  0.0000000000e+00  0.0000000000e+00  0.0000000000e+00  0.0000000000e+00 
 1.7065863355e+01  5.8383216742e+01  1.7964066690e+01  0.0000000000e+00  0.0000000000e+00 
 0.0000000000e+00  0.0000000000e+00  0.0000000000e+00  8.9820333449e-01  2.6946100035e+00 
 5.3892200069e+00  0.0000000000e+00  0.0000000000e+00  0.0000000000e+00  0.0000000000e+00 
 0.0000000000e+00  0.0000000000e+00  0.0000000000e+00  0.0000000000e+00  0.0000000000e+00 
 0.0000000000e+00  0.0000000000e+00  2.6946100035e+00  3.3233523376e+01  3.4131726710e+01 
 5.3892200069e+00  0.0000000000e+00  0.0000000000e+00  0.0000000000e+00  0.0000000000e+00 
 8.9820333449e-01  2.3353286697e+01  3.1437116707e+01  3.5928133379e+00  0.0000000000e+00 
 0.0000000000e+00  0.0000000000e+00  0.0000000000e+00  0.0000000000e+00  0.0000000000e+00 
 0.0000000000e+00  0.0000000000e+00  0.0000000000e+00  0.0000000000e+00  0.0000000000e+00 
 2.6946100035e+00  8.9820333449e+00  3.5928133379e+00  0.0000000000e+00  8.9820333449e-01 
 0.0000000000e+00  0.0000000000e+00  0.0000000000e+00  2.6946100035e+01  6.1077826745e+01 
 1.7964066690e+01  0.0000000000e+00  0.0000000000e+00  0.0000000000e+00  0.0000000000e+00 
 0.0000000000e+00  0.0000000000e+00  0.0000000000e+00  0.0000000000e+00  0.0000000000e+00 
 0.0000000000e+00  0.0000000000e+00  0.0000000000e+00  1.7964066690e+00  8.0838300104e+00 
 2.6946100035e+00  8.9820333449e-01  8.9820333449e-01  0.0000000000e+00  2.6946100035e+00 
 5.3892200069e+00  1.6167660021e+01  1.3473050017e+01  6.2874233414e+00  4.4910166724e+00 