Li32 Si4 Se24
 1.00 
 10.64748 0.0 -0.565744 
 0.0 10.7639 0.0 
 0.0 0.0 10.5144 
 Li Se Si
 32 24 4
direct
 0.13543700  0.35794000  0.12622900 
 0.51194400  0.30890600  0.28847300 
 0.99788700  0.75781100  0.65048400 
 0.28027900  0.53801000  0.31032500 
 0.95838100  0.08337200  0.25159400 
 0.49845800  0.33695700  0.73091300 
 0.08951500  0.85475100  0.35085900 
 0.58770100  0.59374400  0.68730400 
 0.59561500  0.07767400  0.22500800 
 0.84949600  0.74404400  0.94981900 
 0.36505200  0.89839400  0.86282700 
 0.01674700  0.69536500  0.17227200 
 0.18226300  0.69634100  0.95914400 
 0.65665000  0.95882100  0.88591400 
 0.33595200  0.19812500  0.97175300 
 0.68857800  0.23432800  0.05647000 
 0.82540400  0.03022000  0.69639900 
 0.09279600  0.20518000  0.89787200 
 0.71216900  0.33302100  0.48078400 
 0.80327700  0.46299800  0.19011500 
 0.45603600  0.76774300  0.09176400 
 0.33355800  0.04034700  0.18603700 
 0.32493600  0.48781000  0.66419500 
 0.07716000  0.43452100  0.74694300 
 0.29310700  0.30426400  0.50595000 
 0.00769400  0.20820500  0.55760300 
 0.83630400  0.56648200  0.80193300 
 0.77444300  0.08122400  0.44490200 
 0.30148000  0.76766900  0.43989500 
 0.20554200  0.04877300  0.57183000 
 0.55251300  0.66096400  0.35204400 
 0.78603200  0.79240100  0.50490000 
 0.01374800  0.99103900  0.99662000 
 0.99881400  0.50255300  0.47093200 
 0.51517800  0.01901700  0.49781100 
 0.50893300  0.51171400  0.00692700 
 0.13964200  0.13504500  0.12528900 
 0.14405400  0.60139200  0.59287500 
 0.61623700  0.14976400  0.62989200 
 0.64561300  0.64089000  0.14291900 
 0.89067100  0.87615600  0.12484200 
 0.88284300  0.40339300  0.61029100 
 0.38826500  0.89022000  0.61660300 
 0.38234800  0.41566600  0.12951100 
 0.86993700  0.12415800  0.90607300 
 0.88059800  0.64288100  0.34809900 
 0.37801400  0.13290100  0.37738100 
 0.39314200  0.63086300  0.86895600 
 0.13116300  0.91001500  0.85087700 
 0.07595400  0.36280100  0.36070400 
 0.64022800  0.90508900  0.36405700 
 0.63178800  0.40454100  0.89250700 
 0.23995700  0.28144500  0.74368200 
 0.75035200  0.78100200  0.73286700 
 0.73133300  0.23239100  0.28317800 
 0.26622400  0.75525200  0.21459100 
 0.96173000  0.98448100  0.52308300 
 0.48819800  0.45973500  0.50022700 
 0.97273600  0.52163600  0.98801800 
 0.47417600  0.01356300  0.02895700 
 
 22 22 22 
 0.0000000000e+00  0.0000000000e+00  0.0000000000e+00  0.0000000000e+00  0.0000000000e+00 
 0.0000000000e+00  8.9820333449e-01  0.0000000000e+00  0.0000000000e+00  0.0000000000e+00 
 0.0000000000e+00  0.0000000000e+00  0.0000000000e+00  0.0000000000e+00  0.0000000000e+00 
 8.9820333449e-01  1.7964066690e+00  0.0000000000e+00  0.0000000000e+00  0.0000000000e+00 
 0.0000000000e+00  0.0000000000e+00  0.0000000000e+00  0.0000000000e+00  0.0000000000e+00 
 0.0000000000e+00  0.0000000000e+00  0.0000000000e+00  1.7964066690e+00  0.0000000000e+00 
 0.0000000000e+00  0.0000000000e+00  0.0000000000e+00  0.0000000000e+00  0.0000000000e+00 
 0.0000000000e+00  0.0000000000e+00  8.0838300104e+00  6.2874233414e+00  0.0000000000e+00 
 0.0000000000e+00  0.0000000000e+00  0.0000000000e+00  0.0000000000e+00  0.0000000000e+00 
 0.0000000000e+00  0.0000000000e+00  0.0000000000e+00  0.0000000000e+00  8.9820333449e-01 
 3.5928133379e+00  1.7964066690e+00  0.0000000000e+00  0.0000000000e+00  0.0000000000e+00 
 0.0000000000e+00  0.0000000000e+00  0.0000000000e+00  1.7964066690e+00  1.7964066690e+01 
 1.1676643348e+01  0.0000000000e+00  0.0000000000e+00  0.0000000000e+00  0.0000000000e+00 
 0.0000000000e+00  0.0000000000e+00  0.0000000000e+00  0.0000000000e+00  0.0000000000e+00 
 0.0000000000e+00  2.6946100035e+00  1.4371253352e+01  1.5269456686e+01  0.0000000000e+00 
 0.0000000000e+00  0.0000000000e+00  0.0000000000e+00  0.0000000000e+00  0.0000000000e+00 
 8.0838300104e+00  5.0299386731e+01  1.0778440014e+01  0.0000000000e+00  0.0000000000e+00 
 0.0000000000e+00  0.0000000000e+00  0.0000000000e+00  0.0000000000e+00  0.0000000000e+00 
 0.0000000000e+00  0.0000000000e+00  0.0000000000e+00  3.5928133379e+00  4.0419150052e+01 
 7.8143690100e+01  2.6047896700e+01  0.0000000000e+00  0.0000000000e+00  0.0000000000e+00 
 8.9820333449e-01  1.1676643348e+01  6.6467046752e+01  1.0958080681e+02  2.2455083362e+01 
 0.0000000000e+00  0.0000000000e+00  0.0000000000e+00  0.0000000000e+00  0.0000000000e+00 
 8.9820333449e-01  1.7964066690e+00  0.0000000000e+00  0.0000000000e+00  0.0000000000e+00 
 2.6946100035e+00  1.8862270024e+01  2.0658676693e+01  1.0778440014e+01  0.0000000000e+00 
 8.9820333449e-01  2.6946100035e+00  1.4371253352e+01  2.6047896700e+01  5.7485013407e+01 
 6.9161656755e+01  1.7065863355e+01  4.4910166724e+00  3.5928133379e+00  8.9820333449e-01 
 0.0000000000e+00  0.0000000000e+00  5.3892200069e+00  6.2874233414e+00  2.6946100035e+00 
 9.8802366793e+00  4.4910166724e+00  5.3892200069e+00  3.5928133379e+00  2.6946100035e+00 
 8.9820333449e-01  0.0000000000e+00  0.0000000000e+00  3.5928133379e+00  5.3892200069e+00 
 4.4910166724e+00  2.6946100035e+00  6.2874233414e+00  8.9820333449e+00  1.5269456686e+01 
 1.1676643348e+01  1.9760473359e+01  7.1856266759e+00  2.6946100035e+00  1.7964066690e+00 
 6.2874233414e+00  3.5928133379e+00  1.6167660021e+01  1.7065863355e+01  4.4910166724e+00 
 0.0000000000e+00  0.0000000000e+00  0.0000000000e+00  0.0000000000e+00  0.0000000000e+00 
 0.0000000000e+00  0.0000000000e+00  0.0000000000e+00  0.0000000000e+00  2.6946100035e+00 
 4.4910166724e+00  4.4011963390e+01  4.5808370059e+01  1.4371253352e+01  2.6946100035e+00 
 8.9820333449e-01  0.0000000000e+00  8.9820333449e-01  8.9820333449e-01  3.5928133379e+00 
 1.0778440014e+01  1.7964066690e+00  8.9820333449e-01  0.0000000000e+00  0.0000000000e+00 
 0.0000000000e+00  0.0000000000e+00  0.0000000000e+00  0.0000000000e+00  0.0000000000e+00 
 0.0000000000e+00  0.0000000000e+00  1.3473050017e+01  1.4371253352e+01  9.8802366793e+00 
 0.0000000000e+00  0.0000000000e+00  0.0000000000e+00  0.0000000000e+00  0.0000000000e+00 
 0.0000000000e+00  8.9820333449e-01  5.3892200069e+00  8.9820333449e-01  0.0000000000e+00 
 0.0000000000e+00  0.0000000000e+00  0.0000000000e+00  0.0000000000e+00  0.0000000000e+00 
 0.0000000000e+00  0.0000000000e+00  0.0000000000e+00  0.0000000000e+00  3.5928133379e+00 
 6.2874233414e+00  8.9820333449e-01  0.0000000000e+00  0.0000000000e+00  0.0000000000e+00 
 0.0000000000e+00  0.0000000000e+00  0.0000000000e+00  0.0000000000e+00  8.9820333449e-01 
 4.4910166724e+00  0.0000000000e+00  0.0000000000e+00  0.0000000000e+00  0.0000000000e+00 
 0.0000000000e+00  0.0000000000e+00  0.0000000000e+00  0.0000000000e+00  0.0000000000e+00 
 0.0000000000e+00  5.3892200069e+00  4.4910166724e+00  0.0000000000e+00  0.0000000000e+00 
 0.0000000000e+00  0.0000000000e+00  0.0000000000e+00  0.0000000000e+00  0.0000000000e+00 
 0.0000000000e+00  5.3892200069e+00  1.7964066690e+00  0.0000000000e+00  0.0000000000e+00 
 0.0000000000e+00  0.0000000000e+00  0.0000000000e+00  0.0000000000e+00  0.0000000000e+00 
 0.0000000000e+00  0.0000000000e+00  0.0000000000e+00  1.7964066690e+00  0.0000000000e+00 
 0.0000000000e+00  0.0000000000e+00  0.0000000000e+00  0.0000000000e+00  0.0000000000e+00 
 0.0000000000e+00  0.0000000000e+00  0.0000000000e+00  6.2874233414e+00  1.3473050017e+01 
 0.0000000000e+00  0.0000000000e+00  0.0000000000e+00  0.0000000000e+00  0.0000000000e+00 
 0.0000000000e+00  0.0000000000e+00  0.0000000000e+00  0.0000000000e+00  0.0000000000e+00 
 8.9820333449e-01  8.9820333449e-01  0.0000000000e+00  0.0000000000e+00  0.0000000000e+00 
 0.0000000000e+00  0.0000000000e+00  0.0000000000e+00  0.0000000000e+00  0.0000000000e+00 
 1.6167660021e+01  1.6167660021e+01  0.0000000000e+00  0.0000000000e+00  0.0000000000e+00 
 0.0000000000e+00  0.0000000000e+00  0.0000000000e+00  0.0000000000e+00  0.0000000000e+00 
 0.0000000000e+00  0.0000000000e+00  8.9820333449e-01  8.0838300104e+00  6.2874233414e+00 
 0.0000000000e+00  0.0000000000e+00  0.0000000000e+00  0.0000000000e+00  0.0000000000e+00 
 0.0000000000e+00  4.4910166724e+00  5.2993996735e+01  1.5269456686e+01  1.7964066690e+00 
 0.0000000000e+00  0.0000000000e+00  0.0000000000e+00  0.0000000000e+00  0.0000000000e+00 
 0.0000000000e+00  0.0000000000e+00  0.0000000000e+00  0.0000000000e+00  2.6946100035e+00 
 2.1556880028e+01  1.4371253352e+01  8.9820333449e-01  0.0000000000e+00  0.0000000000e+00 
 0.0000000000e+00  8.9820333449e-01  3.5928133379e+00  5.3892200069e+01  1.1586823015e+02 
 2.9640710038e+01  1.7964066690e+00  0.0000000000e+00  0.0000000000e+00  0.0000000000e+00 
 0.0000000000e+00  0.0000000000e+00  0.0000000000e+00  0.0000000000e+00  0.0000000000e+00 
 0.0000000000e+00  6.2874233414e+00  6.7365250086e+01  4.9401183397e+01  8.0838300104e+00 
 0.0000000000e+00  0.0000000000e+00  0.0000000000e+00  8.9820333449e-01  1.4371253352e+01 
 2.8742506704e+01  3.6826336714e+01  2.2455083362e+01  1.0778440014e+01  5.3892200069e+00 
 0.0000000000e+00  8.9820333449e-01  3.5928133379e+00  3.5928133379e+00  8.9820333449e-01 
 2.6946100035e+00  6.2874233414e+00  3.5928133379e+00  9.8802366793e+00  1.4371253352e+01 
 7.1856266759e+00  8.9820333449e+00  5.3892200069e+00  1.7964066690e+00  0.0000000000e+00 
 0.0000000000e+00  8.9820333449e-01  0.0000000000e+00  3.5928133379e+00  1.0778440014e+01 
 3.0538913373e+01  2.8742506704e+01  1.7065863355e+01  5.3892200069e+00  1.3473050017e+01 
 6.2874233414e+00  1.5269456686e+01  1.5269456686e+01  2.2455083362e+01  1.7964066690e+01 
 8.0838300104e+00  8.9820333449e-01  0.0000000000e+00  8.9820333449e-01  8.9820333449e-01 
 0.0000000000e+00  0.0000000000e+00  0.0000000000e+00  0.0000000000e+00  0.0000000000e+00 
 8.9820333449e-01  7.1856266759e+00  2.6047896700e+01  4.4011963390e+01  2.1556880028e+01 
 2.6946100035e+00  0.0000000000e+00  8.9820333449e-01  2.6946100035e+00  1.7065863355e+01 
 2.6946100035e+01  1.5269456686e+01  2.6946100035e+00  0.0000000000e+00  0.0000000000e+00 
 0.0000000000e+00  0.0000000000e+00  0.0000000000e+00  0.0000000000e+00  0.0000000000e+00 
 0.0000000000e+00  0.0000000000e+00  0.0000000000e+00  6.2874233414e+00  2.1556880028e+01 
 1.7964066690e+01  8.9820333449e-01  0.0000000000e+00  0.0000000000e+00  0.0000000000e+00 
 0.0000000000e+00  8.9820333449e-01  1.0778440014e+01  2.6946100035e+00  8.9820333449e-01 
 0.0000000000e+00  0.0000000000e+00  0.0000000000e+00  0.0000000000e+00  0.0000000000e+00 
 0.0000000000e+00  0.0000000000e+00  0.0000000000e+00  0.0000000000e+00  0.0000000000e+00 
 1.7964066690e+00  6.2874233414e+00  4.4910166724e+00  0.0000000000e+00  0.0000000000e+00 
 0.0000000000e+00  0.0000000000e+00  0.0000000000e+00  0.0000000000e+00  1.7964066690e+00 
 3.5928133379e+00  3.5928133379e+00  0.0000000000e+00  0.0000000000e+00  0.0000000000e+00 
 0.0000000000e+00  0.0000000000e+00  0.0000000000e+00  0.0000000000e+00  0.0000000000e+00 
 0.0000000000e+00  0.0000000000e+00  0.0000000000e+00  6.2874233414e+00  0.0000000000e+00 
 0.0000000000e+00  0.0000000000e+00  0.0000000000e+00  0.0000000000e+00  0.0000000000e+00 
 0.0000000000e+00  0.0000000000e+00  1.7964066690e+00  8.9820333449e-01  0.0000000000e+00 
 0.0000000000e+00  0.0000000000e+00  0.0000000000e+00  0.0000000000e+00  0.0000000000e+00 
 0.0000000000e+00  0.0000000000e+00  0.0000000000e+00  0.0000000000e+00  0.0000000000e+00 
 4.4910166724e+00  1.7964066690e+00  0.0000000000e+00  0.0000000000e+00  0.0000000000e+00 
 0.0000000000e+00  0.0000000000e+00  0.0000000000e+00  8.9820333449e-01  5.3892200069e+00 
 2.6946100035e+00  0.0000000000e+00  0.0000000000e+00  0.0000000000e+00  0.0000000000e+00 
 0.0000000000e+00  0.0000000000e+00  0.0000000000e+00  0.0000000000e+00  0.0000000000e+00 
 0.0000000000e+00  0.0000000000e+00  2.6946100035e+00  4.4910166724e+00  0.0000000000e+00 
 0.0000000000e+00  0.0000000000e+00  0.0000000000e+00  0.0000000000e+00  0.0000000000e+00 
 0.0000000000e+00  1.6167660021e+01  1.8862270024e+01  0.0000000000e+00  0.0000000000e+00 
 0.0000000000e+00  0.0000000000e+00  0.0000000000e+00  0.0000000000e+00  0.0000000000e+00 
 0.0000000000e+00  0.0000000000e+00  0.0000000000e+00  0.0000000000e+00  5.3892200069e+00 
 2.6946100035e+00  0.0000000000e+00  0.0000000000e+00  0.0000000000e+00  0.0000000000e+00 
 0.0000000000e+00  0.0000000000e+00  8.9820333449e-01  3.6826336714e+01  4.3113760055e+01 
 2.6946100035e+00  0.0000000000e+00  0.0000000000e+00  0.0000000000e+00  0.0000000000e+00 
 0.0000000000e+00  0.0000000000e+00  0.0000000000e+00  0.0000000000e+00  0.0000000000e+00 
 0.0000000000e+00  7.1856266759e+00  1.4371253352e+01  1.7964066690e+00  0.0000000000e+00 
 0.0000000000e+00  0.0000000000e+00  0.0000000000e+00  0.0000000000e+00  1.0778440014e+01 
 5.1197590066e+01  3.8622743383e+01  3.5928133379e+00  0.0000000000e+00  0.0000000000e+00 
 0.0000000000e+00  0.0000000000e+00  0.0000000000e+00  0.0000000000e+00  0.0000000000e+00 
 0.0000000000e+00  0.0000000000e+00  1.7964066690e+00  2.6047896700e+01  5.6586810073e+01 
 2.0658676693e+01  2.6946100035e+00  0.0000000000e+00  4.4910166724e+00  4.4910166724e+00 
 1.9760473359e+01  6.4670640083e+01  9.1616740118e+01  2.3353286697e+01  2.6946100035e+00 
 0.0000000000e+00  8.9820333449e-01  0.0000000000e+00  0.0000000000e+00  1.7964066690e+00 
 0.0000000000e+00  0.0000000000e+00  0.0000000000e+00  0.0000000000e+00  8.9820333449e-01 
 4.4910166724e+00  6.2874233414e+00  2.6946100035e+00  8.9820333449e-01  2.6946100035e+00 
 1.7065863355e+01  6.3772436749e+01  6.5568843417e+01  4.5808370059e+01  5.3892200069e+01 
 1.1676643348e+01  3.5928133379e+00  2.6946100035e+00  7.1856266759e+00  7.1856266759e+00 
 1.7964066690e+00  9.8802366793e+00  1.6167660021e+01  8.9820333449e+00  6.2874233414e+00 
 1.7964066690e+00  1.7964066690e+00  0.0000000000e+00  0.0000000000e+00  0.0000000000e+00 
 8.9820333449e-01  8.9820333449e-01  8.0838300104e+00  3.1437116707e+01  2.3353286697e+01 
 5.3892200069e+00  7.1856266759e+00  1.3473050017e+01  1.9760473359e+01  2.0658676693e+01 
 3.4131726710e+01  4.2215556721e+01  1.9760473359e+01  1.0778440014e+01  2.1556880028e+01 
 1.2574846683e+01  1.0778440014e+01  1.2574846683e+01  3.5928133379e+00  0.0000000000e+00 
 0.0000000000e+00  0.0000000000e+00  0.0000000000e+00  0.0000000000e+00  0.0000000000e+00 
 0.0000000000e+00  1.7964066690e+00  0.0000000000e+00  8.9820333449e-01  2.6946100035e+00 
 2.7844303369e+01  4.4910166724e+01  1.7065863355e+01  1.5269456686e+01  7.1856266759e+00 
 0.0000000000e+00  0.0000000000e+00  3.5928133379e+00  1.1676643348e+01  1.6167660021e+01 
 1.7964066690e+00  8.9820333449e-01  0.0000000000e+00  0.0000000000e+00  0.0000000000e+00 
 0.0000000000e+00  0.0000000000e+00  0.0000000000e+00  0.0000000000e+00  0.0000000000e+00 
 0.0000000000e+00  1.2574846683e+01  2.6047896700e+01  1.9760473359e+01  8.9820333449e-01 
 0.0000000000e+00  0.0000000000e+00  0.0000000000e+00  0.0000000000e+00  0.0000000000e+00 
 8.9820333449e-01  9.8802366793e+00  8.9820333449e-01  0.0000000000e+00  0.0000000000e+00 
 0.0000000000e+00  0.0000000000e+00  0.0000000000e+00  0.0000000000e+00  0.0000000000e+00 
 0.0000000000e+00  0.0000000000e+00  1.7964066690e+00  3.3233523376e+01  4.9401183397e+01 
 2.6946100035e+00  0.0000000000e+00  0.0000000000e+00  0.0000000000e+00  0.0000000000e+00 
 0.0000000000e+00  0.0000000000e+00  0.0000000000e+00  7.1856266759e+00  4.4910166724e+00 
 0.0000000000e+00  0.0000000000e+00  0.0000000000e+00  0.0000000000e+00  0.0000000000e+00 
 0.0000000000e+00  0.0000000000e+00  0.0000000000e+00  0.0000000000e+00  2.6946100035e+00 
 3.5928133379e+01  2.8742506704e+01  8.9820333449e-01  0.0000000000e+00  0.0000000000e+00 
 0.0000000000e+00  0.0000000000e+00  0.0000000000e+00  0.0000000000e+00  0.0000000000e+00 
 3.5928133379e+00  1.0778440014e+01  8.9820333449e-01  0.0000000000e+00  0.0000000000e+00 
 0.0000000000e+00  0.0000000000e+00  0.0000000000e+00  0.0000000000e+00  0.0000000000e+00 
 0.0000000000e+00  0.0000000000e+00  8.9820333449e-01  5.3892200069e+00  0.0000000000e+00 
 0.0000000000e+00  0.0000000000e+00  0.0000000000e+00  0.0000000000e+00  0.0000000000e+00 
 0.0000000000e+00  0.0000000000e+00  8.0838300104e+00  3.5029930045e+01  2.6946100035e+00 
 0.0000000000e+00  0.0000000000e+00  0.0000000000e+00  0.0000000000e+00  0.0000000000e+00 
 0.0000000000e+00  0.0000000000e+00  0.0000000000e+00  0.0000000000e+00  1.7964066690e+00 
 8.9820333449e-01  0.0000000000e+00  0.0000000000e+00  0.0000000000e+00  0.0000000000e+00 
 0.0000000000e+00  0.0000000000e+00  0.0000000000e+00  8.9820333449e-01  2.6047896700e+01 
 7.3652673428e+01  3.5928133379e+00  0.0000000000e+00  0.0000000000e+00  0.0000000000e+00 
 0.0000000000e+00  0.0000000000e+00  0.0000000000e+00  0.0000000000e+00  0.0000000000e+00 
 0.0000000000e+00  2.6946100035e+00  8.9820333449e-01  0.0000000000e+00  0.0000000000e+00 
 0.0000000000e+00  0.0000000000e+00  0.0000000000e+00  0.0000000000e+00  8.9820333449e-01 
 1.7964066690e+01  6.5568843417e+01  2.8742506704e+01  5.3892200069e+00  1.7964066690e+00 
 8.9820333449e-01  0.0000000000e+00  0.0000000000e+00  0.0000000000e+00  0.0000000000e+00 
 0.0000000000e+00  0.0000000000e+00  0.0000000000e+00  8.9820333449e-01  1.4371253352e+01 
 1.1676643348e+01  1.7964066690e+00  0.0000000000e+00  0.0000000000e+00  0.0000000000e+00 
 8.0838300104e+00  3.2335320041e+01  6.1077826745e+01  9.5209553456e+01  4.3113760055e+01 
 6.2874233414e+00  6.2874233414e+00  3.5928133379e+00  0.0000000000e+00  0.0000000000e+00 
 0.0000000000e+00  0.0000000000e+00  0.0000000000e+00  0.0000000000e+00  0.0000000000e+00 
 4.4910166724e+00  3.0538913373e+01  2.3353286697e+01  7.1856266759e+00  3.5928133379e+00 
 1.7964066690e+00  8.9820333449e+00  2.1556880028e+01  4.1317353386e+01  3.9520946717e+01 
 3.8622743383e+01  2.6946100035e+01  1.4371253352e+01  1.4371253352e+01  1.2574846683e+01 
 9.8802366793e+00  0.0000000000e+00  4.4910166724e+00  1.7964066690e+00  1.7964066690e+00 
 0.0000000000e+00  0.0000000000e+00  4.4910166724e+00  6.2874233414e+00  7.1856266759e+00 
 5.3892200069e+00  3.5928133379e+00  3.5928133379e+00  0.0000000000e+00  5.3892200069e+00 
 1.4371253352e+01  8.9820333449e-01  8.9820333449e-01  1.3473050017e+01  1.7964066690e+01 
 4.0419150052e+01  4.0419150052e+01  4.0419150052e+01  3.0538913373e+01  1.7964066690e+01 
 2.6946100035e+00  1.5269456686e+01  7.1856266759e+00  7.1856266759e+00  3.5928133379e+00 
 0.0000000000e+00  0.0000000000e+00  0.0000000000e+00  0.0000000000e+00  0.0000000000e+00 
 0.0000000000e+00  0.0000000000e+00  0.0000000000e+00  8.9820333449e-01  8.9820333449e-01 
 1.1676643348e+01  3.0538913373e+01  4.3113760055e+01  3.2335320041e+01  5.3892200069e+00 
 8.9820333449e-01  5.3892200069e+00  5.3892200069e+00  1.9760473359e+01  3.4131726710e+01 
 4.4910166724e+00  8.9820333449e-01  0.0000000000e+00  0.0000000000e+00  0.0000000000e+00 
 0.0000000000e+00  0.0000000000e+00  0.0000000000e+00  0.0000000000e+00  0.0000000000e+00 
 0.0000000000e+00  0.0000000000e+00  8.9820333449e+00  4.4011963390e+01  3.5029930045e+01 
 4.4910166724e+00  0.0000000000e+00  0.0000000000e+00  0.0000000000e+00  0.0000000000e+00 
 0.0000000000e+00  1.1676643348e+01  8.9820333449e-01  0.0000000000e+00  0.0000000000e+00 
 0.0000000000e+00  0.0000000000e+00  0.0000000000e+00  0.0000000000e+00  0.0000000000e+00 
 0.0000000000e+00  0.0000000000e+00  0.0000000000e+00  0.0000000000e+00  1.3473050017e+01 
 5.3892200069e+01  9.8802366793e+00  8.9820333449e-01  0.0000000000e+00  0.0000000000e+00 
 0.0000000000e+00  0.0000000000e+00  0.0000000000e+00  8.9820333449e-01  5.3892200069e+00 
 1.7964066690e+00  0.0000000000e+00  0.0000000000e+00  0.0000000000e+00  0.0000000000e+00 
 0.0000000000e+00  0.0000000000e+00  0.0000000000e+00  0.0000000000e+00  0.0000000000e+00 
 0.0000000000e+00  2.6946100035e+00  1.4371253352e+01  0.0000000000e+00  0.0000000000e+00 
 0.0000000000e+00  0.0000000000e+00  0.0000000000e+00  0.0000000000e+00  0.0000000000e+00 
 0.0000000000e+00  0.0000000000e+00  1.7964066690e+00  8.9820333449e-01  0.0000000000e+00 
 0.0000000000e+00  0.0000000000e+00  0.0000000000e+00  0.0000000000e+00  0.0000000000e+00 
 0.0000000000e+00  0.0000000000e+00  0.0000000000e+00  8.9820333449e-01  3.5928133379e+00 
 3.5928133379e+00  0.0000000000e+00  0.0000000000e+00  0.0000000000e+00  0.0000000000e+00 
 0.0000000000e+00  0.0000000000e+00  3.5928133379e+00  2.6946100035e+00  3.5928133379e+00 
 0.0000000000e+00  0.0000000000e+00  0.0000000000e+00  0.0000000000e+00  0.0000000000e+00 
 0.0000000000e+00  0.0000000000e+00  0.0000000000e+00  0.0000000000e+00  0.0000000000e+00 
 0.0000000000e+00  1.7964066690e+00  2.6946100035e+00  0.0000000000e+00  0.0000000000e+00 
 0.0000000000e+00  0.0000000000e+00  0.0000000000e+00  0.0000000000e+00  1.7964066690e+00 
 3.0538913373e+01  3.2335320041e+01  0.0000000000e+00  0.0000000000e+00  0.0000000000e+00 
 0.0000000000e+00  0.0000000000e+00  0.0000000000e+00  0.0000000000e+00  0.0000000000e+00 
 0.0000000000e+00  0.0000000000e+00  0.0000000000e+00  0.0000000000e+00  0.0000000000e+00 
 0.0000000000e+00  0.0000000000e+00  0.0000000000e+00  0.0000000000e+00  0.0000000000e+00 
 0.0000000000e+00  8.9820333449e-01  1.5269456686e+01  3.2335320041e+01  4.4910166724e+00 
 0.0000000000e+00  0.0000000000e+00  0.0000000000e+00  0.0000000000e+00  0.0000000000e+00 
 0.0000000000e+00  0.0000000000e+00  0.0000000000e+00  0.0000000000e+00  0.0000000000e+00 
 0.0000000000e+00  1.0778440014e+01  1.0778440014e+01  8.9820333449e-01  0.0000000000e+00 
 0.0000000000e+00  0.0000000000e+00  7.1856266759e+00  0.0000000000e+00  4.4910166724e+00 
 9.8802366793e+00  0.0000000000e+00  1.7964066690e+00  0.0000000000e+00  0.0000000000e+00 
 0.0000000000e+00  0.0000000000e+00  0.0000000000e+00  0.0000000000e+00  0.0000000000e+00 
 0.0000000000e+00  0.0000000000e+00  0.0000000000e+00  1.1676643348e+01  5.3892200069e+00 
 2.6946100035e+00  2.6946100035e+00  8.9820333449e+00  1.1676643348e+01  6.2874233414e+00 
 2.6946100035e+00  2.6946100035e+00  2.6946100035e+00  0.0000000000e+00  0.0000000000e+00 
 1.7964066690e+00  3.5928133379e+00  0.0000000000e+00  0.0000000000e+00  0.0000000000e+00 
 0.0000000000e+00  0.0000000000e+00  0.0000000000e+00  0.0000000000e+00  0.0000000000e+00 
 0.0000000000e+00  2.6946100035e+00  1.7964066690e+00  1.7964066690e+00  4.3113760055e+01 
 9.4311350121e+01  2.0658676693e+01  6.2874233414e+00  0.0000000000e+00  0.0000000000e+00 
 0.0000000000e+00  8.9820333449e-01  9.8802366793e+00  7.1856266759e+00  5.3892200069e+00 
 1.5269456686e+01  5.3892200069e+00  8.9820333449e-01  0.0000000000e+00  8.9820333449e-01 
 0.0000000000e+00  0.0000000000e+00  0.0000000000e+00  0.0000000000e+00  0.0000000000e+00 
 0.0000000000e+00  5.3892200069e+00  3.2335320041e+01  3.0538913373e+01  0.0000000000e+00 
 0.0000000000e+00  0.0000000000e+00  0.0000000000e+00  0.0000000000e+00  1.6167660021e+01 
 4.7604776728e+01  2.6946100035e+01  2.5149693366e+01  1.6167660021e+01  7.1856266759e+00 
 1.3473050017e+01  6.2874233414e+00  0.0000000000e+00  0.0000000000e+00  0.0000000000e+00 
 0.0000000000e+00  0.0000000000e+00  0.0000000000e+00  0.0000000000e+00  8.9820333449e-01 
 0.0000000000e+00  8.9820333449e-01  0.0000000000e+00  0.0000000000e+00  8.9820333449e-01 
 5.3892200069e+00  8.9820333449e+00  2.3353286697e+01  3.8622743383e+01  0.0000000000e+00 
 3.5928133379e+00  1.5269456686e+01  6.8263453421e+01  1.7065863355e+01  8.9820333449e-01 
 0.0000000000e+00  0.0000000000e+00  0.0000000000e+00  0.0000000000e+00  0.0000000000e+00 
 0.0000000000e+00  0.0000000000e+00  0.0000000000e+00  8.9820333449e-01  8.9820333449e-01 
 4.4910166724e+00  4.4910166724e+00  1.7964066690e+01  7.1856266759e+00  1.7964066690e+00 
 0.0000000000e+00  0.0000000000e+00  0.0000000000e+00  1.7964066690e+00  2.1556880028e+01 
 1.1676643348e+01  0.0000000000e+00  0.0000000000e+00  0.0000000000e+00  0.0000000000e+00 
 0.0000000000e+00  0.0000000000e+00  0.0000000000e+00  0.0000000000e+00  0.0000000000e+00 
 0.0000000000e+00  9.8802366793e+00  3.5928133379e+01  7.0059860090e+01  1.8862270024e+01 
 0.0000000000e+00  0.0000000000e+00  0.0000000000e+00  0.0000000000e+00  0.0000000000e+00 
 0.0000000000e+00  3.5928133379e+00  8.9820333449e+00  8.9820333449e-01  0.0000000000e+00 
 0.0000000000e+00  0.0000000000e+00  0.0000000000e+00  0.0000000000e+00  0.0000000000e+00 
 0.0000000000e+00  0.0000000000e+00  0.0000000000e+00  8.9820333449e-01  5.6586810073e+01 
 7.1856266759e+01  8.9820333449e+00  0.0000000000e+00  0.0000000000e+00  0.0000000000e+00 
 0.0000000000e+00  0.0000000000e+00  0.0000000000e+00  1.7964066690e+00  1.5269456686e+01 
 1.2574846683e+01  1.7964066690e+00  0.0000000000e+00  0.0000000000e+00  0.0000000000e+00 
 0.0000000000e+00  0.0000000000e+00  0.0000000000e+00  0.0000000000e+00  0.0000000000e+00 
 0.0000000000e+00  7.1856266759e+00  2.5149693366e+01  8.9820333449e-01  8.9820333449e-01 
 0.0000000000e+00  0.0000000000e+00  0.0000000000e+00  0.0000000000e+00  0.0000000000e+00 
 1.7964066690e+00  2.1556880028e+01  4.5808370059e+01  1.1676643348e+01  0.0000000000e+00 
 0.0000000000e+00  0.0000000000e+00  0.0000000000e+00  0.0000000000e+00  0.0000000000e+00 
 0.0000000000e+00  0.0000000000e+00  0.0000000000e+00  3.5928133379e+00  3.5928133379e+00 
 3.5928133379e+00  8.9820333449e-01  0.0000000000e+00  0.0000000000e+00  0.0000000000e+00 
 0.0000000000e+00  0.0000000000e+00  3.5928133379e+00  8.0838300104e+00  2.8742506704e+01 
 7.1856266759e+00  0.0000000000e+00  0.0000000000e+00  0.0000000000e+00  0.0000000000e+00 
 0.0000000000e+00  0.0000000000e+00  0.0000000000e+00  0.0000000000e+00  0.0000000000e+00 
 0.0000000000e+00  2.6946100035e+00  4.4910166724e+00  1.7964066690e+00  0.0000000000e+00 
 0.0000000000e+00  0.0000000000e+00  3.5928133379e+00  3.5928133379e+00  7.1856266759e+00 
 9.8802366793e+00  3.5928133379e+00  8.9820333449e-01  2.6946100035e+00  8.9820333449e-01 
 0.0000000000e+00  0.0000000000e+00  0.0000000000e+00  0.0000000000e+00  0.0000000000e+00 
 0.0000000000e+00  0.0000000000e+00  0.0000000000e+00  2.6946100035e+00  1.1676643348e+01 
 1.0778440014e+01  1.7964066690e+00  2.6946100035e+00  8.9820333449e+00  3.2335320041e+01 
 1.4371253352e+01  7.1856266759e+00  8.9820333449e-01  0.0000000000e+00  0.0000000000e+00 
 4.4910166724e+00  7.1856266759e+00  3.5928133379e+00  0.0000000000e+00  0.0000000000e+00 
 0.0000000000e+00  0.0000000000e+00  0.0000000000e+00  0.0000000000e+00  0.0000000000e+00 
 5.3892200069e+00  5.3892200069e+00  5.3892200069e+00  3.5928133379e+00  3.5928133379e+00 
 9.8802366793e+00  6.6467046752e+01  3.2335320041e+01  3.5928133379e+00  0.0000000000e+00 
 1.7964066690e+00  0.0000000000e+00  2.6946100035e+00  7.1856266759e+00  1.6167660021e+01 
 5.3892200069e+00  0.0000000000e+00  0.0000000000e+00  0.0000000000e+00  0.0000000000e+00 
 0.0000000000e+00  0.0000000000e+00  0.0000000000e+00  0.0000000000e+00  0.0000000000e+00 
 0.0000000000e+00  4.4910166724e+00  8.9820333449e-01  1.1676643348e+01  1.3473050017e+01 
 2.6946100035e+00  0.0000000000e+00  8.9820333449e-01  3.5928133379e+00  1.7964066690e+00 
 9.8802366793e+00  3.5029930045e+01  3.5928133379e+01  2.0658676693e+01  6.2874233414e+00 
 2.6946100035e+00  1.7964066690e+00  8.9820333449e-01  0.0000000000e+00  0.0000000000e+00 
 0.0000000000e+00  0.0000000000e+00  0.0000000000e+00  0.0000000000e+00  0.0000000000e+00 
 0.0000000000e+00  0.0000000000e+00  0.0000000000e+00  0.0000000000e+00  1.7964066690e+00 
 8.9820333449e-01  2.6946100035e+00  2.1556880028e+01  1.9760473359e+01  8.0838300104e+00 
 1.3473050017e+01  1.8862270024e+01  1.3473050017e+01  1.0778440014e+01  2.6946100035e+00 
 0.0000000000e+00  0.0000000000e+00  0.0000000000e+00  0.0000000000e+00  0.0000000000e+00 
 0.0000000000e+00  0.0000000000e+00  0.0000000000e+00  0.0000000000e+00  0.0000000000e+00 
 1.7964066690e+00  1.7964066690e+00  1.3473050017e+01  1.9760473359e+01  9.8802366793e+00 
 8.9820333449e-01  2.6946100035e+00  0.0000000000e+00  5.3892200069e+00  8.0838300104e+00 
 2.6946100035e+01  3.5928133379e+00  0.0000000000e+00  0.0000000000e+00  0.0000000000e+00 
 0.0000000000e+00  0.0000000000e+00  0.0000000000e+00  0.0000000000e+00  0.0000000000e+00 
 0.0000000000e+00  0.0000000000e+00  8.9820333449e-01  1.1676643348e+01  5.1197590066e+01 
 3.1437116707e+01  8.9820333449e-01  0.0000000000e+00  0.0000000000e+00  0.0000000000e+00 
 0.0000000000e+00  8.9820333449e-01  7.1856266759e+00  3.5928133379e+00  0.0000000000e+00 
 0.0000000000e+00  0.0000000000e+00  0.0000000000e+00  0.0000000000e+00  0.0000000000e+00 
 0.0000000000e+00  0.0000000000e+00  0.0000000000e+00  0.0000000000e+00  8.9820333449e-01 
 5.3892200069e+00  3.2335320041e+01  1.8862270024e+01  0.0000000000e+00  0.0000000000e+00 
 0.0000000000e+00  0.0000000000e+00  0.0000000000e+00  0.0000000000e+00  8.9820333449e-01 
 0.0000000000e+00  0.0000000000e+00  0.0000000000e+00  0.0000000000e+00  0.0000000000e+00 
 0.0000000000e+00  0.0000000000e+00  0.0000000000e+00  0.0000000000e+00  0.0000000000e+00 
 0.0000000000e+00  0.0000000000e+00  8.9820333449e-01  2.1556880028e+01  2.6946100035e+01 
 8.0838300104e+00  1.7964066690e+00  0.0000000000e+00  0.0000000000e+00  0.0000000000e+00 
 8.9820333449e-01  3.3233523376e+01  5.1197590066e+01  8.0838300104e+00  0.0000000000e+00 
 0.0000000000e+00  0.0000000000e+00  0.0000000000e+00  0.0000000000e+00  0.0000000000e+00 
 0.0000000000e+00  0.0000000000e+00  0.0000000000e+00  0.0000000000e+00  0.0000000000e+00 
 2.6946100035e+00  1.0778440014e+01  3.5928133379e+00  2.6946100035e+00  8.9820333449e-01 
 0.0000000000e+00  8.9820333449e-01  8.9820333449e-01  1.6167660021e+01  6.5568843417e+01 
 1.6167660021e+01  0.0000000000e+00  0.0000000000e+00  0.0000000000e+00  0.0000000000e+00 
 0.0000000000e+00  0.0000000000e+00  0.0000000000e+00  0.0000000000e+00  0.0000000000e+00 
 0.0000000000e+00  0.0000000000e+00  0.0000000000e+00  1.7964066690e+00  3.5928133379e+00 
 8.9820333449e-01  0.0000000000e+00  0.0000000000e+00  8.9820333449e-01  0.0000000000e+00 
 2.6946100035e+00  1.2574846683e+01  8.0838300104e+00  8.9820333449e-01  0.0000000000e+00 