Li28 P4 S24
 1.00 
 10.329216 0.0 -0.880345 
 0.0 11.072313 0.0 
 0.0 0.0 10.366663 
 Li P S
 28 4 24
direct
 0.21712200  0.16407600  0.49723700 
 0.68168200  0.05382300  0.23209100 
 0.03257300  0.71408000  0.75908500 
 0.45383500  0.80108100  0.27560100 
 0.96373600  0.12477400  0.26571400 
 0.50855200  0.29413900  0.81551000 
 0.00713200  0.72761900  0.14710200 
 0.53591100  0.74753600  0.62003600 
 0.76560700  0.15884500  0.46774300 
 0.79617200  0.56098900  0.80531200 
 0.32787400  0.07738700  0.87827600 
 0.30373700  0.60603900  0.36885700 
 0.18905400  0.56773400  0.07586800 
 0.48749200  0.35926400  0.51829500 
 0.80761600  0.75198100  0.93600300 
 0.90793300  0.31599800  0.42621000 
 0.25932300  0.34895700  0.99312400 
 0.07650800  0.91280200  0.34720200 
 0.68932700  0.25497400  0.03567400 
 0.70992900  0.61716100  0.46818500 
 0.79642500  0.99731500  0.77361600 
 0.33226600  0.04197900  0.19211700 
 0.51405700  0.24551800  0.23476200 
 0.08221600  0.18095100  0.71668500 
 0.23407200  0.79222600  0.96595200 
 0.85220400  0.89472000  0.54971300 
 0.30181100  0.46865700  0.68021300 
 0.81499800  0.46820700  0.21897500 
 0.00217600  0.04385900  0.03439600 
 0.01285100  0.52391200  0.47747500 
 0.50366600  0.04040700  0.51858700 
 0.47847600  0.56515800  0.03259500 
 0.13527600  0.14993000  0.15673500 
 0.15646900  0.62217900  0.58407100 
 0.61270500  0.15338100  0.63352700 
 0.59041100  0.68452500  0.12697300 
 0.89402300  0.92234400  0.15108400 
 0.83752800  0.43996800  0.56507600 
 0.35154700  0.94688500  0.57470200 
 0.38400000  0.44135800  0.17799100 
 0.87374100  0.15676900  0.92178900 
 0.89226400  0.63918600  0.34160300 
 0.41574200  0.17782200  0.39091700 
 0.32047300  0.61427600  0.91019200 
 0.07436600  0.94512700  0.88726400 
 0.10296500  0.40446100  0.36828400 
 0.61698000  0.93421500  0.41055600 
 0.60287800  0.45659800  0.94274200 
 0.30153000  0.23973200  0.73220700 
 0.75965900  0.79201700  0.71403400 
 0.77077300  0.25637100  0.25408800 
 0.23230700  0.77382900  0.24268700 
 0.95857800  0.06095900  0.48941300 
 0.48931000  0.55267100  0.53042000 
 0.99249800  0.60512700  0.95238900 
 0.49479800  0.09519300  0.04099600 
 
 21 23 21 
 0.0000000000e+00  0.0000000000e+00  0.0000000000e+00  0.0000000000e+00  0.0000000000e+00 
 0.0000000000e+00  3.9113347308e+00  3.9113347308e+00  0.0000000000e+00  0.0000000000e+00 
 0.0000000000e+00  0.0000000000e+00  0.0000000000e+00  0.0000000000e+00  5.8670020962e+00 
 3.9113347308e+00  9.7783368270e-01  0.0000000000e+00  0.0000000000e+00  0.0000000000e+00 
 0.0000000000e+00  0.0000000000e+00  0.0000000000e+00  0.0000000000e+00  0.0000000000e+00 
 0.0000000000e+00  9.7783368270e-01  0.0000000000e+00  1.9556673654e+00  0.0000000000e+00 
 0.0000000000e+00  0.0000000000e+00  0.0000000000e+00  0.0000000000e+00  0.0000000000e+00 
 4.8891684135e+00  5.8670020962e+00  0.0000000000e+00  0.0000000000e+00  0.0000000000e+00 
 0.0000000000e+00  0.0000000000e+00  0.0000000000e+00  0.0000000000e+00  0.0000000000e+00 
 0.0000000000e+00  9.7783368270e-01  6.8448357789e+00  1.5645338923e+01  0.0000000000e+00 
 0.0000000000e+00  0.0000000000e+00  0.0000000000e+00  0.0000000000e+00  0.0000000000e+00 
 0.0000000000e+00  6.8448357789e+00  1.5645338923e+01  2.9335010481e+00  0.0000000000e+00 
 0.0000000000e+00  0.0000000000e+00  0.0000000000e+00  0.0000000000e+00  0.0000000000e+00 
 0.0000000000e+00  0.0000000000e+00  0.0000000000e+00  1.3689671558e+01  3.6179846260e+01 
 2.9335010481e+00  0.0000000000e+00  0.0000000000e+00  0.0000000000e+00  0.0000000000e+00 
 0.0000000000e+00  0.0000000000e+00  1.1734004192e+01  1.8578839971e+01  0.0000000000e+00 
 0.0000000000e+00  0.0000000000e+00  0.0000000000e+00  0.0000000000e+00  0.0000000000e+00 
 0.0000000000e+00  0.0000000000e+00  0.0000000000e+00  9.7783368270e-01  1.3689671558e+01 
 5.9647854645e+01  2.5423675750e+01  9.7783368270e-01  0.0000000000e+00  0.0000000000e+00 
 0.0000000000e+00  0.0000000000e+00  4.8891684135e+00  5.0847351500e+01  3.7157679942e+01 
 6.8448357789e+00  0.0000000000e+00  0.0000000000e+00  0.0000000000e+00  0.0000000000e+00 
 0.0000000000e+00  0.0000000000e+00  0.0000000000e+00  0.0000000000e+00  1.9556673654e+00 
 1.8578839971e+01  5.4758686231e+01  7.1381858837e+01  1.7601006289e+01  1.9556673654e+00 
 3.9113347308e+00  9.7783368270e-01  1.9556673654e+00  2.2490174702e+01  7.6271027250e+01 
 4.1069014673e+01  3.9113347308e+00  0.0000000000e+00  0.0000000000e+00  0.0000000000e+00 
 0.0000000000e+00  1.9556673654e+00  9.7783368270e-01  9.7783368270e-01  4.8891684135e+00 
 5.8670020962e+00  9.7783368270e+00  3.6179846260e+01  3.4224178894e+01  2.3468008385e+01 
 1.7601006289e+01  8.8005031443e+00  1.2711837875e+01  1.6623172606e+01  1.5645338923e+01 
 3.0312844164e+01  2.8357176798e+01  1.2711837875e+01  6.8448357789e+00  9.7783368270e-01 
 3.9113347308e+00  6.8448357789e+00  7.8226694616e+00  1.6623172606e+01  5.8670020962e+00 
 1.8578839971e+01  1.7601006289e+01  9.7783368270e+00  3.9113347308e+00  6.8448357789e+00 
 3.9113347308e+00  8.8005031443e+00  5.8670020962e+00  6.8448357789e+00  2.9335010481e+00 
 9.7783368270e-01  5.8670020962e+00  8.8005031443e+00  3.4224178894e+01  2.8357176798e+01 
 2.0534507337e+01  1.2711837875e+01  9.7783368270e+00  6.8448357789e+00  9.7783368270e+00 
 1.0756170510e+01  1.5645338923e+01  1.8578839971e+01  1.4667505240e+01  0.0000000000e+00 
 0.0000000000e+00  0.0000000000e+00  0.0000000000e+00  0.0000000000e+00  0.0000000000e+00 
 9.7783368270e-01  0.0000000000e+00  9.7783368270e-01  3.9113347308e+00  3.3246345212e+01 
 4.3024682039e+01  2.9335010481e+01  1.2711837875e+01  1.9556673654e+00  0.0000000000e+00 
 0.0000000000e+00  4.8891684135e+00  1.5645338923e+01  2.5423675750e+01  1.5645338923e+01 
 0.0000000000e+00  0.0000000000e+00  0.0000000000e+00  0.0000000000e+00  0.0000000000e+00 
 0.0000000000e+00  0.0000000000e+00  0.0000000000e+00  0.0000000000e+00  2.9335010481e+00 
 9.7783368270e+00  1.7601006289e+01  8.8005031443e+00  9.7783368270e-01  0.0000000000e+00 
 0.0000000000e+00  0.0000000000e+00  9.7783368270e-01  3.9113347308e+00  9.7783368270e+00 
 3.9113347308e+00  0.0000000000e+00  0.0000000000e+00  0.0000000000e+00  0.0000000000e+00 
 0.0000000000e+00  0.0000000000e+00  0.0000000000e+00  0.0000000000e+00  0.0000000000e+00 
 1.9556673654e+00  5.8670020962e+00  6.8448357789e+00  1.9556673654e+00  1.9556673654e+00 
 0.0000000000e+00  0.0000000000e+00  0.0000000000e+00  9.7783368270e-01  5.8670020962e+00 
 4.8891684135e+00  7.8226694616e+00  0.0000000000e+00  0.0000000000e+00  0.0000000000e+00 
 0.0000000000e+00  0.0000000000e+00  0.0000000000e+00  0.0000000000e+00  0.0000000000e+00 
 0.0000000000e+00  0.0000000000e+00  6.8448357789e+00  9.7783368270e+00  9.7783368270e-01 
 0.0000000000e+00  0.0000000000e+00  0.0000000000e+00  0.0000000000e+00  0.0000000000e+00 
 3.9113347308e+00  8.8005031443e+00  6.8448357789e+00  0.0000000000e+00  0.0000000000e+00 
 0.0000000000e+00  0.0000000000e+00  0.0000000000e+00  0.0000000000e+00  0.0000000000e+00 
 0.0000000000e+00  0.0000000000e+00  0.0000000000e+00  1.0756170510e+01  1.1734004192e+01 
 0.0000000000e+00  0.0000000000e+00  0.0000000000e+00  0.0000000000e+00  0.0000000000e+00 
 0.0000000000e+00  9.7783368270e-01  1.5645338923e+01  6.8448357789e+00  0.0000000000e+00 
 0.0000000000e+00  0.0000000000e+00  0.0000000000e+00  0.0000000000e+00  0.0000000000e+00 
 0.0000000000e+00  0.0000000000e+00  0.0000000000e+00  5.8670020962e+00  1.0756170510e+01 
 7.8226694616e+00  1.9556673654e+00  0.0000000000e+00  0.0000000000e+00  0.0000000000e+00 
 0.0000000000e+00  0.0000000000e+00  2.9335010481e+00  1.3689671558e+01  8.8005031443e+00 
 0.0000000000e+00  0.0000000000e+00  0.0000000000e+00  0.0000000000e+00  0.0000000000e+00 
 0.0000000000e+00  0.0000000000e+00  0.0000000000e+00  0.0000000000e+00  2.9335010481e+00 
 1.6623172606e+01  2.2490174702e+01  0.0000000000e+00  0.0000000000e+00  0.0000000000e+00 
 0.0000000000e+00  0.0000000000e+00  9.7783368270e-01  1.7601006289e+01  3.0312844164e+01 
 1.1734004192e+01  9.7783368270e-01  0.0000000000e+00  0.0000000000e+00  0.0000000000e+00 
 0.0000000000e+00  0.0000000000e+00  0.0000000000e+00  0.0000000000e+00  0.0000000000e+00 
 1.9556673654e+00  3.3246345212e+01  2.7379343116e+01  1.3689671558e+01  9.7783368270e-01 
 0.0000000000e+00  9.7783368270e-01  1.9556673654e+00  1.2711837875e+01  5.7692187279e+01 
 7.5293193568e+01  9.7783368270e+00  0.0000000000e+00  0.0000000000e+00  0.0000000000e+00 
 0.0000000000e+00  0.0000000000e+00  0.0000000000e+00  0.0000000000e+00  0.0000000000e+00 
 1.9556673654e+00  1.2711837875e+01  4.6936016769e+01  7.2359692520e+01  3.4224178894e+01 
 1.1734004192e+01  0.0000000000e+00  1.9556673654e+00  7.8226694616e+00  1.6623172606e+01 
 3.6179846260e+01  5.7692187279e+01  1.5645338923e+01  2.9335010481e+00  0.0000000000e+00 
 0.0000000000e+00  3.9113347308e+00  0.0000000000e+00  0.0000000000e+00  9.7783368270e-01 
 4.8891684135e+00  4.8891684135e+00  1.9556673654e+01  4.2046848356e+01  6.7470524106e+01 
 4.4980349404e+01  1.3689671558e+01  2.9335010481e+00  9.7783368270e-01  9.7783368270e-01 
 0.0000000000e+00  1.9556673654e+00  1.3689671558e+01  2.0534507337e+01  1.4667505240e+01 
 1.1734004192e+01  6.8448357789e+00  3.9113347308e+00  1.2711837875e+01  3.9113347308e+00 
 1.2711837875e+01  1.4667505240e+01  1.2711837875e+01  2.1512341019e+01  2.6401509433e+01 
 7.8226694616e+00  4.8891684135e+00  2.9335010481e+00  9.7783368270e-01  0.0000000000e+00 
 0.0000000000e+00  0.0000000000e+00  9.7783368270e-01  9.7783368270e-01  2.9335010481e+00 
 1.4667505240e+01  2.1512341019e+01  2.7379343116e+01  7.8226694616e+00  1.0756170510e+01 
 8.8005031443e+00  8.8005031443e+00  2.1512341019e+01  2.0534507337e+01  1.8578839971e+01 
 2.9335010481e+00  0.0000000000e+00  9.7783368270e-01  0.0000000000e+00  0.0000000000e+00 
 0.0000000000e+00  0.0000000000e+00  0.0000000000e+00  0.0000000000e+00  1.9556673654e+00 
 3.9113347308e+00  1.1734004192e+01  2.0534507337e+01  2.9335010481e+00  2.9335010481e+00 
 1.9556673654e+00  0.0000000000e+00  9.7783368270e-01  3.9113347308e+00  5.8670020962e+00 
 1.4667505240e+01  0.0000000000e+00  0.0000000000e+00  0.0000000000e+00  0.0000000000e+00 
 0.0000000000e+00  0.0000000000e+00  0.0000000000e+00  0.0000000000e+00  0.0000000000e+00 
 0.0000000000e+00  0.0000000000e+00  4.8891684135e+00  4.8891684135e+00  0.0000000000e+00 
 0.0000000000e+00  0.0000000000e+00  0.0000000000e+00  0.0000000000e+00  9.7783368270e-01 
 6.8448357789e+00  1.0756170510e+01  1.9556673654e+00  0.0000000000e+00  0.0000000000e+00 
 0.0000000000e+00  0.0000000000e+00  0.0000000000e+00  0.0000000000e+00  0.0000000000e+00 
 0.0000000000e+00  0.0000000000e+00  0.0000000000e+00  9.7783368270e-01  0.0000000000e+00 
 0.0000000000e+00  0.0000000000e+00  0.0000000000e+00  0.0000000000e+00  0.0000000000e+00 
 1.9556673654e+00  2.9335010481e+00  7.8226694616e+00  9.7783368270e-01  0.0000000000e+00 
 0.0000000000e+00  0.0000000000e+00  0.0000000000e+00  0.0000000000e+00  0.0000000000e+00 
 0.0000000000e+00  0.0000000000e+00  0.0000000000e+00  1.9556673654e+00  1.0756170510e+01 
 9.7783368270e-01  9.7783368270e-01  0.0000000000e+00  0.0000000000e+00  0.0000000000e+00 
 0.0000000000e+00  0.0000000000e+00  9.7783368270e-01  3.9113347308e+00  0.0000000000e+00 
 0.0000000000e+00  0.0000000000e+00  0.0000000000e+00  0.0000000000e+00  0.0000000000e+00 
 0.0000000000e+00  0.0000000000e+00  0.0000000000e+00  0.0000000000e+00  6.8448357789e+00 
 6.8448357789e+00  2.9335010481e+00  0.0000000000e+00  0.0000000000e+00  0.0000000000e+00 
 0.0000000000e+00  0.0000000000e+00  0.0000000000e+00  1.1734004192e+01  2.0534507337e+01 
 1.9556673654e+00  0.0000000000e+00  0.0000000000e+00  0.0000000000e+00  0.0000000000e+00 
 0.0000000000e+00  0.0000000000e+00  0.0000000000e+00  0.0000000000e+00  0.0000000000e+00 
 0.0000000000e+00  8.8005031443e+00  9.7783368270e-01  0.0000000000e+00  0.0000000000e+00 
 0.0000000000e+00  0.0000000000e+00  0.0000000000e+00  1.9556673654e+00  1.7601006289e+01 
 8.0182361981e+01  2.4445842067e+01  0.0000000000e+00  0.0000000000e+00  0.0000000000e+00 
 0.0000000000e+00  0.0000000000e+00  0.0000000000e+00  0.0000000000e+00  0.0000000000e+00 
 0.0000000000e+00  0.0000000000e+00  7.8226694616e+00  2.9335010481e+00  0.0000000000e+00 
 0.0000000000e+00  0.0000000000e+00  0.0000000000e+00  0.0000000000e+00  4.8891684135e+00 
 4.8891684135e+01  9.5827700904e+01  1.8578839971e+01  0.0000000000e+00  0.0000000000e+00 
 0.0000000000e+00  0.0000000000e+00  0.0000000000e+00  0.0000000000e+00  0.0000000000e+00 
 0.0000000000e+00  0.0000000000e+00  9.7783368270e-01  6.8448357789e+00  2.0534507337e+01 
 2.9335010481e+00  0.0000000000e+00  0.0000000000e+00  9.7783368270e-01  0.0000000000e+00 
 1.3689671558e+01  7.3337526202e+01  8.7027197760e+01  1.4667505240e+01  0.0000000000e+00 
 0.0000000000e+00  0.0000000000e+00  0.0000000000e+00  0.0000000000e+00  0.0000000000e+00 
 0.0000000000e+00  0.0000000000e+00  0.0000000000e+00  1.9556673654e+00  6.8448357789e+00 
 9.7783368270e+00  2.9335010481e+00  0.0000000000e+00  9.7783368270e-01  3.9113347308e+00 
 1.2711837875e+01  3.2268511529e+01  8.0182361981e+01  4.4002515721e+01  1.1734004192e+01 
 3.9113347308e+00  1.9556673654e+00  3.9113347308e+00  1.9556673654e+00  5.8670020962e+00 
 0.0000000000e+00  0.0000000000e+00  0.0000000000e+00  0.0000000000e+00  9.7783368270e-01 
 1.9556673654e+00  5.8670020962e+00  1.9556673654e+00  9.7783368270e-01  1.1734004192e+01 
 3.9113347308e+01  6.4537023058e+01  5.2803018866e+01  3.9113347308e+01  5.1825185183e+01 
 3.2268511529e+01  1.3689671558e+01  2.1512341019e+01  2.0534507337e+01  1.3689671558e+01 
 6.8448357789e+00  2.9335010481e+00  1.9556673654e+00  3.9113347308e+00  7.8226694616e+00 
 5.8670020962e+00  0.0000000000e+00  0.0000000000e+00  0.0000000000e+00  0.0000000000e+00 
 2.9335010481e+00  1.5645338923e+01  2.8357176798e+01  1.8578839971e+01  4.8891684135e+00 
 1.8578839971e+01  3.4224178894e+01  5.6714353596e+01  4.6936016769e+01  3.2268511529e+01 
 2.5423675750e+01  1.0756170510e+01  8.8005031443e+00  7.8226694616e+00  3.9113347308e+00 
 5.8670020962e+00  4.8891684135e+00  0.0000000000e+00  0.0000000000e+00  0.0000000000e+00 
 0.0000000000e+00  0.0000000000e+00  9.7783368270e-01  9.7783368270e-01  9.7783368270e-01 
 1.9556673654e+00  7.8226694616e+00  2.8357176798e+01  3.3246345212e+01  4.0091180991e+01 
 1.5645338923e+01  6.8448357789e+00  1.9556673654e+00  9.7783368270e-01  9.7783368270e+00 
 5.8670020962e+00  3.9113347308e+00  1.9556673654e+00  0.0000000000e+00  0.0000000000e+00 
 0.0000000000e+00  0.0000000000e+00  0.0000000000e+00  0.0000000000e+00  0.0000000000e+00 
 0.0000000000e+00  0.0000000000e+00  3.9113347308e+00  2.4445842067e+01  3.2268511529e+01 
 1.8578839971e+01  0.0000000000e+00  3.9113347308e+00  0.0000000000e+00  0.0000000000e+00 
 1.9556673654e+00  1.1734004192e+01  0.0000000000e+00  1.9556673654e+00  0.0000000000e+00 
 0.0000000000e+00  0.0000000000e+00  0.0000000000e+00  0.0000000000e+00  0.0000000000e+00 
 0.0000000000e+00  0.0000000000e+00  0.0000000000e+00  1.3689671558e+01  5.0847351500e+01 
 2.1512341019e+01  6.8448357789e+00  1.9556673654e+00  9.7783368270e-01  0.0000000000e+00 
 0.0000000000e+00  0.0000000000e+00  9.7783368270e-01  9.7783368270e-01  0.0000000000e+00 
 0.0000000000e+00  0.0000000000e+00  0.0000000000e+00  0.0000000000e+00  0.0000000000e+00 
 0.0000000000e+00  0.0000000000e+00  0.0000000000e+00  0.0000000000e+00  8.8005031443e+00 
 4.0091180991e+01  1.0756170510e+01  0.0000000000e+00  0.0000000000e+00  0.0000000000e+00 
 0.0000000000e+00  0.0000000000e+00  0.0000000000e+00  2.9335010481e+00  8.8005031443e+00 
 3.9113347308e+00  0.0000000000e+00  0.0000000000e+00  0.0000000000e+00  0.0000000000e+00 
 0.0000000000e+00  0.0000000000e+00  0.0000000000e+00  0.0000000000e+00  0.0000000000e+00 
 9.7783368270e-01  1.0756170510e+01  1.1734004192e+01  3.9113347308e+00  0.0000000000e+00 
 0.0000000000e+00  0.0000000000e+00  0.0000000000e+00  0.0000000000e+00  9.7783368270e-01 
 4.0091180991e+01  3.1290677846e+01  2.9335010481e+00  0.0000000000e+00  0.0000000000e+00 
 0.0000000000e+00  0.0000000000e+00  0.0000000000e+00  0.0000000000e+00  0.0000000000e+00 
 0.0000000000e+00  9.7783368270e-01  5.8670020962e+00  1.5645338923e+01  0.0000000000e+00 
 0.0000000000e+00  0.0000000000e+00  0.0000000000e+00  0.0000000000e+00  0.0000000000e+00 
 2.9335010481e+00  3.4224178894e+01  4.6936016769e+01  6.8448357789e+00  0.0000000000e+00 
 0.0000000000e+00  0.0000000000e+00  0.0000000000e+00  0.0000000000e+00  0.0000000000e+00 
 0.0000000000e+00  0.0000000000e+00  0.0000000000e+00  7.8226694616e+00  5.8670020962e+00 
 9.7783368270e-01  0.0000000000e+00  0.0000000000e+00  0.0000000000e+00  9.7783368270e-01 
 2.9335010481e+00  2.5423675750e+01  6.3559189375e+01  2.9335010481e+01  4.8891684135e+00 
 0.0000000000e+00  0.0000000000e+00  0.0000000000e+00  0.0000000000e+00  0.0000000000e+00 
 0.0000000000e+00  0.0000000000e+00  0.0000000000e+00  0.0000000000e+00  6.8448357789e+00 
 1.2711837875e+01  5.8670020962e+00  0.0000000000e+00  0.0000000000e+00  1.9556673654e+00 
 4.8891684135e+00  3.1290677846e+01  1.0267253668e+02  1.1440654088e+02  4.3024682039e+01 
 8.8005031443e+00  1.9556673654e+00  9.7783368270e-01  9.7783368270e-01  9.7783368270e-01 
 0.0000000000e+00  0.0000000000e+00  0.0000000000e+00  0.0000000000e+00  9.7783368270e-01 
 1.4667505240e+01  1.8578839971e+01  1.3689671558e+01  1.9556673654e+00  2.9335010481e+00 
 2.9335010481e+00  3.4224178894e+01  5.7692187279e+01  4.6936016769e+01  6.1603522010e+01 
 3.0312844164e+01  1.3689671558e+01  8.8005031443e+00  6.8448357789e+00  1.0756170510e+01 
 6.8448357789e+00  0.0000000000e+00  0.0000000000e+00  0.0000000000e+00  0.0000000000e+00 
 1.9556673654e+00  1.5645338923e+01  1.4667505240e+01  7.8226694616e+00  1.9556673654e+00 
 0.0000000000e+00  1.9556673654e+00  5.8670020962e+00  3.2268511529e+01  5.8670020962e+00 
 1.0756170510e+01  8.8005031443e+00  1.4667505240e+01  2.1512341019e+01  1.6623172606e+01 
 2.5423675750e+01  1.6623172606e+01  5.8670020962e+00  0.0000000000e+00  0.0000000000e+00 
 6.8448357789e+00  3.9113347308e+00  9.7783368270e-01  9.7783368270e-01  0.0000000000e+00 
 0.0000000000e+00  9.7783368270e-01  0.0000000000e+00  0.0000000000e+00  2.9335010481e+00 
 3.9113347308e+00  6.8448357789e+00  2.9335010481e+00  2.2490174702e+01  3.6179846260e+01 
 2.5423675750e+01  3.8135513625e+01  1.8578839971e+01  1.1734004192e+01  4.8891684135e+00 
 3.9113347308e+00  1.0756170510e+01  9.7783368270e-01  9.7783368270e-01  0.0000000000e+00 
 0.0000000000e+00  0.0000000000e+00  0.0000000000e+00  0.0000000000e+00  0.0000000000e+00 
 0.0000000000e+00  0.0000000000e+00  9.7783368270e-01  4.8891684135e+00  2.6401509433e+01 
 3.4224178894e+01  7.8226694616e+00  3.9113347308e+00  2.9335010481e+00  9.7783368270e-01 
 1.9556673654e+00  5.8670020962e+00  5.8670020962e+00  2.9335010481e+00  0.0000000000e+00 
 0.0000000000e+00  0.0000000000e+00  0.0000000000e+00  0.0000000000e+00  0.0000000000e+00 
 0.0000000000e+00  0.0000000000e+00  0.0000000000e+00  1.9556673654e+00  4.8891684135e+00 
 1.2711837875e+01  1.2711837875e+01  1.9556673654e+00  0.0000000000e+00  0.0000000000e+00 
 0.0000000000e+00  9.7783368270e-01  2.9335010481e+00  5.8670020962e+00  2.9335010481e+00 
 0.0000000000e+00  0.0000000000e+00  0.0000000000e+00  0.0000000000e+00  0.0000000000e+00 
 0.0000000000e+00  0.0000000000e+00  0.0000000000e+00  0.0000000000e+00  0.0000000000e+00 
 4.8891684135e+00  1.3689671558e+01  1.9556673654e+00  2.9335010481e+00  0.0000000000e+00 
 0.0000000000e+00  0.0000000000e+00  0.0000000000e+00  0.0000000000e+00  1.9556673654e+00 
 9.7783368270e-01  0.0000000000e+00  0.0000000000e+00  0.0000000000e+00  0.0000000000e+00 
 0.0000000000e+00  0.0000000000e+00  0.0000000000e+00  0.0000000000e+00  0.0000000000e+00 
 0.0000000000e+00  3.9113347308e+00  2.7379343116e+01  8.8005031443e+00  0.0000000000e+00 
 0.0000000000e+00  0.0000000000e+00  0.0000000000e+00  0.0000000000e+00  0.0000000000e+00 
 2.9335010481e+00  9.7783368270e-01  0.0000000000e+00  0.0000000000e+00  0.0000000000e+00 
 0.0000000000e+00  0.0000000000e+00  0.0000000000e+00  0.0000000000e+00  0.0000000000e+00 
 0.0000000000e+00  0.0000000000e+00  3.9113347308e+00  1.8578839971e+01  3.9113347308e+00 
 1.9556673654e+00  0.0000000000e+00  0.0000000000e+00  0.0000000000e+00  0.0000000000e+00 
 4.8891684135e+00  1.4667505240e+01  2.3468008385e+01  2.9335010481e+00  0.0000000000e+00 
 0.0000000000e+00  0.0000000000e+00  0.0000000000e+00  0.0000000000e+00  0.0000000000e+00 
 0.0000000000e+00  0.0000000000e+00  0.0000000000e+00  4.8891684135e+00  4.8891684135e+00 
 1.9556673654e+00  0.0000000000e+00  0.0000000000e+00  0.0000000000e+00  0.0000000000e+00 
 0.0000000000e+00  9.7783368270e-01  2.8357176798e+01  9.4849867222e+01  2.5423675750e+01 
 9.7783368270e-01  0.0000000000e+00  0.0000000000e+00  0.0000000000e+00  0.0000000000e+00 
 0.0000000000e+00  0.0000000000e+00  0.0000000000e+00  0.0000000000e+00  9.7783368270e-01 
 4.8891684135e+00  5.8670020962e+00  0.0000000000e+00  0.0000000000e+00  0.0000000000e+00 
 0.0000000000e+00  0.0000000000e+00  4.8891684135e+00  3.6179846260e+01  9.1916366174e+01 
 3.0312844164e+01  2.9335010481e+00  0.0000000000e+00  0.0000000000e+00  0.0000000000e+00 
 0.0000000000e+00  0.0000000000e+00  0.0000000000e+00  0.0000000000e+00  0.0000000000e+00 
 0.0000000000e+00  9.7783368270e-01  6.8448357789e+00  2.9335010481e+00  1.9556673654e+00 
 0.0000000000e+00  9.7783368270e-01  1.9556673654e+00  1.0756170510e+01  1.2711837875e+01 
 1.6623172606e+01  3.9113347308e+00  0.0000000000e+00  0.0000000000e+00  0.0000000000e+00 
 0.0000000000e+00  0.0000000000e+00  0.0000000000e+00  0.0000000000e+00  0.0000000000e+00 
 0.0000000000e+00  0.0000000000e+00  0.0000000000e+00  2.9335010481e+00  5.8670020962e+00 
 9.7783368270e-01  2.9335010481e+00  1.9556673654e+01  1.4667505240e+01  5.8670020962e+00 
 4.8891684135e+00  2.9335010481e+00  0.0000000000e+00  3.9113347308e+00  9.7783368270e-01 
 2.9335010481e+00  0.0000000000e+00  2.9335010481e+00  9.7783368270e-01  9.7783368270e-01 
 0.0000000000e+00  0.0000000000e+00  0.0000000000e+00  0.0000000000e+00  0.0000000000e+00 
 0.0000000000e+00  1.9556673654e+00  8.8005031443e+00  5.5736519914e+01  4.6936016769e+01 
 2.0534507337e+01  8.8005031443e+00  3.9113347308e+00  2.9335010481e+00  5.8670020962e+00 
 6.8448357789e+00  7.8226694616e+00  7.8226694616e+00  1.1734004192e+01  0.0000000000e+00 
 0.0000000000e+00  0.0000000000e+00  0.0000000000e+00  0.0000000000e+00  0.0000000000e+00 
 0.0000000000e+00  0.0000000000e+00  0.0000000000e+00  2.9335010481e+00  2.9335010481e+01 
 2.7379343116e+01  1.2711837875e+01  2.9335010481e+00  1.9556673654e+00  2.9335010481e+00 
 1.0756170510e+01  9.7783368270e+00  2.7379343116e+01  2.6401509433e+01  9.7783368270e+00 
 6.8448357789e+00  7.8226694616e+00  3.9113347308e+00  9.7783368270e-01  9.7783368270e-01 
 0.0000000000e+00  0.0000000000e+00  0.0000000000e+00  0.0000000000e+00  0.0000000000e+00 
 5.8670020962e+00  1.0756170510e+01  3.9113347308e+00  5.8670020962e+00  4.8891684135e+00 
 3.9113347308e+00  4.8891684135e+00  1.6623172606e+01  2.3468008385e+01  1.4667505240e+01 
 3.9113347308e+00  6.8448357789e+00  1.2711837875e+01  7.8226694616e+00  9.7783368270e-01 
 0.0000000000e+00  0.0000000000e+00  0.0000000000e+00  0.0000000000e+00  0.0000000000e+00 
 0.0000000000e+00  0.0000000000e+00  1.9556673654e+00  2.9335010481e+00  0.0000000000e+00 
 3.9113347308e+00  1.6623172606e+01  1.1734004192e+01  1.9556673654e+01  8.8005031443e+00 
 2.9335010481e+00  0.0000000000e+00  9.7783368270e-01  3.9113347308e+00  6.8448357789e+00 
 2.9335010481e+00  0.0000000000e+00  0.0000000000e+00  0.0000000000e+00  0.0000000000e+00 
 0.0000000000e+00  0.0000000000e+00  0.0000000000e+00  0.0000000000e+00  9.7783368270e-01 
 9.7783368270e-01  2.1512341019e+01  5.6714353596e+01  3.6179846260e+01  7.8226694616e+00 
 9.7783368270e-01  0.0000000000e+00  9.7783368270e-01  9.7783368270e-01  0.0000000000e+00 
 4.8891684135e+00  8.8005031443e+00  0.0000000000e+00  0.0000000000e+00  0.0000000000e+00 
 0.0000000000e+00  0.0000000000e+00  0.0000000000e+00  0.0000000000e+00  0.0000000000e+00 
 0.0000000000e+00  0.0000000000e+00  1.6623172606e+01  3.5202012577e+01  2.4445842067e+01 
 2.9335010481e+00  0.0000000000e+00  0.0000000000e+00  0.0000000000e+00  0.0000000000e+00 
 0.0000000000e+00  2.9335010481e+00  1.8578839971e+01  8.8005031443e+00  0.0000000000e+00 
 0.0000000000e+00  0.0000000000e+00  0.0000000000e+00  0.0000000000e+00  0.0000000000e+00 
 0.0000000000e+00  0.0000000000e+00  0.0000000000e+00  1.9556673654e+00  9.7783368270e+00 
 9.7783368270e+00  3.9113347308e+00  0.0000000000e+00  0.0000000000e+00  0.0000000000e+00 
 0.0000000000e+00  0.0000000000e+00  0.0000000000e+00  4.4002515721e+01  4.6936016769e+01 
 7.8226694616e+00  0.0000000000e+00  0.0000000000e+00  0.0000000000e+00  0.0000000000e+00 
 0.0000000000e+00  0.0000000000e+00  0.0000000000e+00  0.0000000000e+00  0.0000000000e+00 
 9.7783368270e-01  6.8448357789e+00  3.9113347308e+00  0.0000000000e+00  0.0000000000e+00 
 0.0000000000e+00  0.0000000000e+00  9.7783368270e-01  1.9556673654e+00  3.8135513625e+01 
 4.5958183087e+01  1.5645338923e+01  0.0000000000e+00  0.0000000000e+00  0.0000000000e+00 
 0.0000000000e+00  0.0000000000e+00  0.0000000000e+00  0.0000000000e+00  0.0000000000e+00 
 0.0000000000e+00  0.0000000000e+00  9.7783368270e-01  9.7783368270e-01  0.0000000000e+00 
 0.0000000000e+00  0.0000000000e+00  1.9556673654e+00  1.0756170510e+01  1.3689671558e+01 
 2.7379343116e+01  6.8448357789e+00  6.8448357789e+00  0.0000000000e+00  0.0000000000e+00 
 0.0000000000e+00  0.0000000000e+00  0.0000000000e+00  0.0000000000e+00  0.0000000000e+00 
 0.0000000000e+00  0.0000000000e+00  0.0000000000e+00  2.9335010481e+00  9.7783368270e-01 
 0.0000000000e+00  0.0000000000e+00  3.9113347308e+00  1.5645338923e+01  3.3246345212e+01 
 3.0312844164e+01  1.2711837875e+01  1.1734004192e+01  4.8891684135e+00  9.7783368270e-01 
 1.9556673654e+00  9.7783368270e-01  0.0000000000e+00  0.0000000000e+00  0.0000000000e+00 
 0.0000000000e+00  0.0000000000e+00  0.0000000000e+00  9.7783368270e-01  3.9113347308e+00 
 1.9556673654e+00  9.7783368270e-01  1.9556673654e+00  1.0756170510e+01  4.3024682039e+01 
 4.7913850452e+01  1.1734004192e+01  9.7783368270e+00  4.8891684135e+00  1.9556673654e+00 
 9.7783368270e-01  4.8891684135e+00  1.2711837875e+01  3.9113347308e+00  1.9556673654e+00 
 0.0000000000e+00  0.0000000000e+00  0.0000000000e+00  0.0000000000e+00  0.0000000000e+00 
 0.0000000000e+00  9.7783368270e-01  9.7783368270e-01  0.0000000000e+00  0.0000000000e+00 
 2.5423675750e+01  4.0091180991e+01  9.7783368270e+00  1.9556673654e+00  3.9113347308e+00 
 0.0000000000e+00  5.8670020962e+00  1.9556673654e+01  3.6179846260e+01  3.0312844164e+01 
 1.9556673654e+00  0.0000000000e+00  0.0000000000e+00  0.0000000000e+00  0.0000000000e+00 
 0.0000000000e+00  0.0000000000e+00  0.0000000000e+00  0.0000000000e+00  0.0000000000e+00 
 0.0000000000e+00  8.8005031443e+00  1.0756170510e+01  2.9335010481e+00  9.7783368270e-01 
 4.8891684135e+00  4.8891684135e+00  1.8578839971e+01  1.9556673654e+01  3.7157679942e+01 
 2.2490174702e+01  1.0756170510e+01  3.9113347308e+00  1.9556673654e+00  9.7783368270e-01 
 9.7783368270e-01  0.0000000000e+00  0.0000000000e+00  0.0000000000e+00  0.0000000000e+00 
 0.0000000000e+00  0.0000000000e+00  0.0000000000e+00  0.0000000000e+00  1.9556673654e+00 
 7.8226694616e+00  4.8891684135e+00  1.8578839971e+01  3.7157679942e+01  2.5423675750e+01 
 6.8448357789e+00  2.9335010481e+00  8.8005031443e+00  3.9113347308e+00  6.8448357789e+00 
 0.0000000000e+00  0.0000000000e+00  0.0000000000e+00  0.0000000000e+00  0.0000000000e+00 
 0.0000000000e+00  0.0000000000e+00  0.0000000000e+00  0.0000000000e+00  0.0000000000e+00 
 0.0000000000e+00  1.9556673654e+00  1.3689671558e+01  4.9869517818e+01  4.2046848356e+01 
 1.3689671558e+01  1.9556673654e+00  0.0000000000e+00  0.0000000000e+00  4.8891684135e+00 
 7.8226694616e+00  3.9113347308e+00  9.7783368270e-01  0.0000000000e+00  0.0000000000e+00 
 0.0000000000e+00  0.0000000000e+00  0.0000000000e+00  0.0000000000e+00  0.0000000000e+00 
 0.0000000000e+00  0.0000000000e+00  9.7783368270e-01  1.3689671558e+01  3.0312844164e+01 
 1.6623172606e+01  0.0000000000e+00  0.0000000000e+00  0.0000000000e+00  0.0000000000e+00 
 0.0000000000e+00  9.7783368270e-01  9.7783368270e-01  0.0000000000e+00  0.0000000000e+00 
 0.0000000000e+00  0.0000000000e+00  0.0000000000e+00  0.0000000000e+00  0.0000000000e+00 
 0.0000000000e+00  0.0000000000e+00  0.0000000000e+00  0.0000000000e+00  1.0756170510e+01 
 3.3246345212e+01  1.7601006289e+01  5.8670020962e+00  0.0000000000e+00  0.0000000000e+00 
 0.0000000000e+00  0.0000000000e+00  3.9113347308e+00  1.7601006289e+01  4.8891684135e+00 
 0.0000000000e+00  0.0000000000e+00  0.0000000000e+00  0.0000000000e+00  0.0000000000e+00 
 0.0000000000e+00  0.0000000000e+00  0.0000000000e+00  0.0000000000e+00  0.0000000000e+00 
 1.9556673654e+00  3.3246345212e+01  2.8357176798e+01  9.7783368270e+00  0.0000000000e+00 
 9.7783368270e-01  1.9556673654e+00  4.8891684135e+00  2.3468008385e+01  5.8670020962e+01 
 3.0312844164e+01  2.9335010481e+00  0.0000000000e+00  0.0000000000e+00  0.0000000000e+00 
 0.0000000000e+00  0.0000000000e+00  0.0000000000e+00  0.0000000000e+00  0.0000000000e+00 
 0.0000000000e+00  0.0000000000e+00  4.8891684135e+00  1.5645338923e+01  9.7783368270e+00 
 0.0000000000e+00  9.7783368270e-01  1.9556673654e+00  9.7783368270e-01  1.8578839971e+01 
 4.9869517818e+01  5.0847351500e+01  3.9113347308e+00  9.7783368270e-01  0.0000000000e+00 
 0.0000000000e+00  0.0000000000e+00  0.0000000000e+00  0.0000000000e+00  0.0000000000e+00 
 0.0000000000e+00  0.0000000000e+00  9.7783368270e-01  9.7783368270e-01  1.3689671558e+01 
 5.8670020962e+00  1.9556673654e+00  1.9556673654e+00  2.9335010481e+00  9.7783368270e+00 