Li24 P4 S20 Cl4
 1.00 
 10.243526 0.0 -0.262941 
 0.269777 10.239973 0.262941 
 0.0 0.0 10.2469 
 Li P S Cl
 24 4 20 4
direct
 0.16340500  0.39687400  0.87892700 
 0.55660700  0.10483700  0.15578200 
 0.85882500  0.92574900  0.63668900 
 0.46565500  0.84605900  0.21390800 
 0.70774400  0.37297300  0.50508400 
 0.61885500  0.95036600  0.75503900 
 0.98875000  0.72078500  0.15478200 
 0.54762500  0.67533100  0.75982600 
 0.79982900  0.05602600  0.32974000 
 0.77612600  0.50994100  0.86350300 
 0.68720200  0.82593500  0.98018400 
 0.73365400  0.46857600  0.20836400 
 0.19325500  0.98406000  0.34752800 
 0.49831200  0.16387000  0.82222600 
 0.26202600  0.04803000  0.89478800 
 0.21835600  0.58762100  0.17550100 
 0.31606300  0.80988900  0.01621700 
 0.12726000  0.23257700  0.55016600 
 0.01031100  0.70975000  0.78682500 
 0.47096700  0.31778000  0.32133400 
 0.80838700  0.25713300  0.00729300 
 0.30422700  0.69182800  0.48971200 
 0.00542200  0.21337400  0.27730900 
 0.69536700  0.66522600  0.55366700 
 0.96068800  0.02162700  0.00087400 
 0.98775600  0.52829000  0.48047000 
 0.51013000  0.99401200  0.50235200 
 0.45720600  0.47715600  0.97135000 
 0.09946400  0.16366500  0.07590300 
 0.08132900  0.69713300  0.56288000 
 0.59713400  0.13457200  0.61644500 
 0.57406900  0.61069500  0.07741700 
 0.87483400  0.90299700  0.16343000 
 0.87513300  0.43021400  0.61294900 
 0.40520200  0.88962900  0.62696900 
 0.32722600  0.38902800  0.09417000 
 0.83466000  0.08493400  0.85526600 
 0.86439700  0.60603000  0.32575500 
 0.37868900  0.10281800  0.37231000 
 0.35209000  0.56664300  0.82063000 
 0.07917600  0.88605400  0.90415600 
 0.13433400  0.42645800  0.41365500 
 0.64064600  0.88293700  0.39716500 
 0.60423400  0.37777100  0.87226200 
 0.75271800  0.76960100  0.74287900 
 0.26310100  0.78002300  0.24521000 
 0.71517700  0.24444100  0.23028700 
 0.48581200  0.95807000  0.97681400 
 0.24970900  0.24371600  0.76695000 
 0.51433600  0.49769700  0.49519200 
 0.98541700  0.08542800  0.44480700 
 0.98988500  0.56190400  0.98114800 
 
 21 21 21 
 0.0000000000e+00  0.0000000000e+00  0.0000000000e+00  0.0000000000e+00  0.0000000000e+00 
 3.1248163338e+00  1.0416054446e+01  0.0000000000e+00  0.0000000000e+00  0.0000000000e+00 
 0.0000000000e+00  0.0000000000e+00  0.0000000000e+00  0.0000000000e+00  0.0000000000e+00 
 1.0416054446e+00  0.0000000000e+00  0.0000000000e+00  0.0000000000e+00  0.0000000000e+00 
 0.0000000000e+00  0.0000000000e+00  0.0000000000e+00  0.0000000000e+00  0.0000000000e+00 
 0.0000000000e+00  4.1664217784e+00  1.8748898003e+01  1.0416054446e+00  0.0000000000e+00 
 0.0000000000e+00  0.0000000000e+00  0.0000000000e+00  0.0000000000e+00  1.0416054446e+00 
 4.1664217784e+00  7.2912381123e+00  0.0000000000e+00  0.0000000000e+00  0.0000000000e+00 
 0.0000000000e+00  0.0000000000e+00  0.0000000000e+00  0.0000000000e+00  0.0000000000e+00 
 0.0000000000e+00  0.0000000000e+00  5.2080272231e+00  1.9790503448e+01  0.0000000000e+00 
 0.0000000000e+00  0.0000000000e+00  0.0000000000e+00  0.0000000000e+00  0.0000000000e+00 
 1.0416054446e+00  1.6665687114e+01  8.3328435569e+00  0.0000000000e+00  0.0000000000e+00 
 0.0000000000e+00  0.0000000000e+00  0.0000000000e+00  0.0000000000e+00  0.0000000000e+00 
 0.0000000000e+00  0.0000000000e+00  0.0000000000e+00  5.2080272231e+00  3.5414585117e+01 
 1.7707292558e+01  0.0000000000e+00  0.0000000000e+00  0.0000000000e+00  0.0000000000e+00 
 1.0416054446e+00  2.8123347005e+01  7.0829170234e+01  4.2705823229e+01  2.0832108892e+00 
 0.0000000000e+00  0.0000000000e+00  0.0000000000e+00  0.0000000000e+00  0.0000000000e+00 
 0.0000000000e+00  0.0000000000e+00  0.0000000000e+00  1.0416054446e+00  5.2080272231e+00 
 2.8123347005e+01  3.3331374228e+01  7.2912381123e+00  5.2080272231e+00  2.0832108892e+00 
 9.3744490015e+00  1.9790503448e+01  9.3744490015e+01  1.2915907513e+02  5.7288299454e+01 
 2.0832108892e+00  0.0000000000e+00  0.0000000000e+00  0.0000000000e+00  0.0000000000e+00 
 0.0000000000e+00  0.0000000000e+00  0.0000000000e+00  0.0000000000e+00  4.1664217784e+00 
 3.1248163338e+00  1.2499265335e+01  5.2080272231e+00  8.3328435569e+00  1.0416054446e+00 
 1.0416054446e+00  1.2499265335e+01  2.0832108892e+01  3.3331374228e+01  7.7078802901e+01 
 5.3121877675e+01  9.3744490015e+00  1.3540870780e+01  3.1248163338e+00  0.0000000000e+00 
 0.0000000000e+00  7.2912381123e+00  2.0832108892e+00  0.0000000000e+00  5.2080272231e+00 
 1.2499265335e+01  4.1664217784e+00  0.0000000000e+00  0.0000000000e+00  0.0000000000e+00 
 0.0000000000e+00  0.0000000000e+00  0.0000000000e+00  0.0000000000e+00  4.1664217784e+00 
 7.2912381123e+00  4.9997061341e+01  6.8745959344e+01  6.2496326677e+01  2.3956925226e+01 
 5.2080272231e+00  2.0832108892e+00  1.0416054446e+00  4.1664217784e+00  1.0416054446e+00 
 9.3744490015e+00  9.3744490015e+00  1.0416054446e+00  0.0000000000e+00  0.0000000000e+00 
 0.0000000000e+00  0.0000000000e+00  0.0000000000e+00  0.0000000000e+00  0.0000000000e+00 
 1.0416054446e+00  0.0000000000e+00  1.4582476225e+01  4.7913850452e+01  4.5830639563e+01 
 9.3744490015e+00  1.0416054446e+00  0.0000000000e+00  0.0000000000e+00  0.0000000000e+00 
 0.0000000000e+00  0.0000000000e+00  8.3328435569e+00  0.0000000000e+00  0.0000000000e+00 
 0.0000000000e+00  0.0000000000e+00  0.0000000000e+00  0.0000000000e+00  0.0000000000e+00 
 0.0000000000e+00  0.0000000000e+00  2.0832108892e+00  5.2080272231e+00  1.8748898003e+01 
 8.3328435569e+00  0.0000000000e+00  0.0000000000e+00  0.0000000000e+00  0.0000000000e+00 
 0.0000000000e+00  0.0000000000e+00  1.0416054446e+00  0.0000000000e+00  0.0000000000e+00 
 0.0000000000e+00  0.0000000000e+00  0.0000000000e+00  0.0000000000e+00  0.0000000000e+00 
 0.0000000000e+00  0.0000000000e+00  0.0000000000e+00  0.0000000000e+00  1.0416054446e+00 
 2.0832108892e+00  1.0416054446e+00  0.0000000000e+00  0.0000000000e+00  0.0000000000e+00 
 0.0000000000e+00  0.0000000000e+00  0.0000000000e+00  0.0000000000e+00  2.0832108892e+00 
 0.0000000000e+00  0.0000000000e+00  0.0000000000e+00  0.0000000000e+00  0.0000000000e+00 
 0.0000000000e+00  0.0000000000e+00  0.0000000000e+00  0.0000000000e+00  0.0000000000e+00 
 1.0416054446e+00  4.1664217784e+00  0.0000000000e+00  0.0000000000e+00  0.0000000000e+00 
 0.0000000000e+00  0.0000000000e+00  0.0000000000e+00  0.0000000000e+00  0.0000000000e+00 
 8.3328435569e+00  7.2912381123e+00  0.0000000000e+00  0.0000000000e+00  0.0000000000e+00 
 0.0000000000e+00  0.0000000000e+00  0.0000000000e+00  0.0000000000e+00  0.0000000000e+00 
 0.0000000000e+00  0.0000000000e+00  5.2080272231e+00  1.0416054446e+00  0.0000000000e+00 
 0.0000000000e+00  0.0000000000e+00  0.0000000000e+00  0.0000000000e+00  0.0000000000e+00 
 0.0000000000e+00  1.3540870780e+01  6.2496326677e+00  0.0000000000e+00  0.0000000000e+00 
 0.0000000000e+00  0.0000000000e+00  0.0000000000e+00  0.0000000000e+00  0.0000000000e+00 
 0.0000000000e+00  0.0000000000e+00  0.0000000000e+00  5.2080272231e+00  0.0000000000e+00 
 0.0000000000e+00  0.0000000000e+00  0.0000000000e+00  0.0000000000e+00  0.0000000000e+00 
 0.0000000000e+00  1.2499265335e+01  3.6456190561e+01  1.0416054446e+01  0.0000000000e+00 
 0.0000000000e+00  0.0000000000e+00  0.0000000000e+00  0.0000000000e+00  0.0000000000e+00 
 0.0000000000e+00  0.0000000000e+00  0.0000000000e+00  3.1248163338e+00  6.2496326677e+00 
 1.0416054446e+00  0.0000000000e+00  0.0000000000e+00  0.0000000000e+00  1.0416054446e+00 
 1.0416054446e+00  4.1664217784e+00  4.8955455897e+01  9.7910911794e+01  1.7707292558e+01 
 3.1248163338e+00  0.0000000000e+00  0.0000000000e+00  0.0000000000e+00  0.0000000000e+00 
 0.0000000000e+00  0.0000000000e+00  0.0000000000e+00  0.0000000000e+00  5.2080272231e+00 
 2.8123347005e+01  1.9790503448e+01  2.0832108892e+00  2.0832108892e+00  0.0000000000e+00 
 0.0000000000e+00  1.0416054446e+00  2.2915319781e+01  6.1454721232e+01  9.4786095460e+01 
 7.2912381123e+01  9.3744490015e+00  2.0832108892e+00  2.0832108892e+00  1.0416054446e+00 
 0.0000000000e+00  0.0000000000e+00  3.1248163338e+00  0.0000000000e+00  1.0416054446e+00 
 1.8748898003e+01  2.2915319781e+01  2.2915319781e+01  4.1664217784e+00  0.0000000000e+00 
 2.0832108892e+00  0.0000000000e+00  3.1248163338e+00  7.2912381123e+00  1.4582476225e+01 
 3.3331374228e+01  7.8120408346e+01  9.5827700904e+01  3.6456190561e+01  2.7081741560e+01 
 1.2499265335e+01  0.0000000000e+00  2.0832108892e+00  3.1248163338e+00  1.5624081669e+01 
 4.5830639563e+01  3.9581006895e+01  1.4582476225e+01  0.0000000000e+00  0.0000000000e+00 
 0.0000000000e+00  0.0000000000e+00  0.0000000000e+00  0.0000000000e+00  1.0416054446e+00 
 1.0416054446e+00  6.2496326677e+00  3.8539401451e+01  1.2290944246e+02  5.8329904898e+01 
 1.2499265335e+01  4.1664217784e+00  2.0832108892e+00  8.3328435569e+00  5.2080272231e+00 
 2.9164952449e+01  6.9787564789e+01  2.4998530671e+01  2.0832108892e+00  0.0000000000e+00 
 0.0000000000e+00  0.0000000000e+00  0.0000000000e+00  0.0000000000e+00  0.0000000000e+00 
 0.0000000000e+00  0.0000000000e+00  0.0000000000e+00  2.3956925226e+01  4.4789034118e+01 
 1.4582476225e+01  2.0832108892e+00  0.0000000000e+00  0.0000000000e+00  0.0000000000e+00 
 3.1248163338e+00  6.2496326677e+00  1.8748898003e+01  2.0832108892e+00  1.0416054446e+00 
 0.0000000000e+00  0.0000000000e+00  0.0000000000e+00  0.0000000000e+00  0.0000000000e+00 
 0.0000000000e+00  0.0000000000e+00  0.0000000000e+00  0.0000000000e+00  1.2499265335e+01 
 3.4372979672e+01  1.0416054446e+00  0.0000000000e+00  0.0000000000e+00  0.0000000000e+00 
 0.0000000000e+00  0.0000000000e+00  0.0000000000e+00  1.0416054446e+00  3.1248163338e+00 
 0.0000000000e+00  0.0000000000e+00  0.0000000000e+00  0.0000000000e+00  0.0000000000e+00 
 0.0000000000e+00  0.0000000000e+00  0.0000000000e+00  0.0000000000e+00  0.0000000000e+00 
 5.2080272231e+00  1.1457659891e+01  0.0000000000e+00  0.0000000000e+00  0.0000000000e+00 
 0.0000000000e+00  0.0000000000e+00  0.0000000000e+00  1.0416054446e+00  2.0832108892e+00 
 1.0416054446e+00  0.0000000000e+00  0.0000000000e+00  0.0000000000e+00  0.0000000000e+00 
 0.0000000000e+00  0.0000000000e+00  0.0000000000e+00  0.0000000000e+00  0.0000000000e+00 
 0.0000000000e+00  0.0000000000e+00  6.2496326677e+00  0.0000000000e+00  0.0000000000e+00 
 0.0000000000e+00  0.0000000000e+00  0.0000000000e+00  0.0000000000e+00  0.0000000000e+00 
 3.1248163338e+00  2.0832108892e+00  0.0000000000e+00  0.0000000000e+00  0.0000000000e+00 
 0.0000000000e+00  0.0000000000e+00  0.0000000000e+00  0.0000000000e+00  0.0000000000e+00 
 0.0000000000e+00  0.0000000000e+00  1.0416054446e+00  2.0832108892e+00  2.0832108892e+00 
 0.0000000000e+00  0.0000000000e+00  0.0000000000e+00  0.0000000000e+00  0.0000000000e+00 
 0.0000000000e+00  1.0416054446e+01  3.3331374228e+01  0.0000000000e+00  0.0000000000e+00 
 0.0000000000e+00  0.0000000000e+00  0.0000000000e+00  0.0000000000e+00  0.0000000000e+00 
 0.0000000000e+00  0.0000000000e+00  0.0000000000e+00  0.0000000000e+00  1.0416054446e+00 
 8.3328435569e+00  0.0000000000e+00  0.0000000000e+00  0.0000000000e+00  0.0000000000e+00 
 0.0000000000e+00  6.2496326677e+00  3.5414585117e+01  6.8745959344e+01  3.1248163338e+00 
 0.0000000000e+00  0.0000000000e+00  0.0000000000e+00  0.0000000000e+00  0.0000000000e+00 
 0.0000000000e+00  0.0000000000e+00  0.0000000000e+00  0.0000000000e+00  0.0000000000e+00 
 9.3744490015e+00  1.5624081669e+01  2.0832108892e+00  3.1248163338e+00  0.0000000000e+00 
 0.0000000000e+00  9.3744490015e+00  3.0206557894e+01  7.7078802901e+01  4.8955455897e+01 
 0.0000000000e+00  0.0000000000e+00  0.0000000000e+00  0.0000000000e+00  0.0000000000e+00 
 0.0000000000e+00  0.0000000000e+00  0.0000000000e+00  0.0000000000e+00  0.0000000000e+00 
 0.0000000000e+00  6.2496326677e+00  1.0416054446e+01  3.1248163338e+00  2.0832108892e+00 
 5.2080272231e+00  1.5624081669e+01  4.0622612340e+01  4.5830639563e+01  5.4163483120e+01 
 2.1873714337e+01  2.0832108892e+00  0.0000000000e+00  2.0832108892e+00  1.0416054446e+00 
 0.0000000000e+00  0.0000000000e+00  0.0000000000e+00  0.0000000000e+00  0.0000000000e+00 
 3.1248163338e+00  2.0832108892e+00  5.2080272231e+00  0.0000000000e+00  4.1664217784e+00 
 5.2080272231e+00  1.0416054446e+00  3.5414585117e+01  6.7704353900e+01  3.0206557894e+01 
 4.1664217784e+01  2.2915319781e+01  1.1457659891e+01  7.2912381123e+00  2.9164952449e+01 
 2.8123347005e+01  1.0416054446e+00  1.0416054446e+00  1.0416054446e+00  0.0000000000e+00 
 0.0000000000e+00  2.0832108892e+00  1.0416054446e+00  0.0000000000e+00  0.0000000000e+00 
 1.0416054446e+00  2.0832108892e+00  1.0416054446e+00  4.1664217784e+00  9.3744490015e+00 
 1.0416054446e+01  4.1664217784e+00  1.1457659891e+01  3.7497796006e+01  5.5205088564e+01 
 5.7288299454e+01  4.9997061341e+01  6.2496326677e+00  1.0416054446e+00  0.0000000000e+00 
 1.0416054446e+00  6.2496326677e+00  0.0000000000e+00  0.0000000000e+00  0.0000000000e+00 
 0.0000000000e+00  0.0000000000e+00  0.0000000000e+00  0.0000000000e+00  0.0000000000e+00 
 0.0000000000e+00  0.0000000000e+00  5.2080272231e+00  2.0832108892e+01  4.7913850452e+01 
 5.5205088564e+01  2.1873714337e+01  1.1457659891e+01  1.0416054446e+00  0.0000000000e+00 
 1.0416054446e+00  1.0416054446e+00  1.0416054446e+00  0.0000000000e+00  0.0000000000e+00 
 0.0000000000e+00  0.0000000000e+00  0.0000000000e+00  0.0000000000e+00  0.0000000000e+00 
 0.0000000000e+00  0.0000000000e+00  0.0000000000e+00  1.0416054446e+00  6.2496326677e+00 
 3.6456190561e+01  2.4998530671e+01  3.1248163338e+00  0.0000000000e+00  0.0000000000e+00 
 0.0000000000e+00  0.0000000000e+00  0.0000000000e+00  0.0000000000e+00  0.0000000000e+00 
 0.0000000000e+00  0.0000000000e+00  0.0000000000e+00  0.0000000000e+00  0.0000000000e+00 
 0.0000000000e+00  0.0000000000e+00  0.0000000000e+00  0.0000000000e+00  6.2496326677e+00 
 1.2499265335e+01  3.7497796006e+01  7.2912381123e+00  0.0000000000e+00  0.0000000000e+00 
 0.0000000000e+00  0.0000000000e+00  0.0000000000e+00  0.0000000000e+00  0.0000000000e+00 
 2.0832108892e+00  0.0000000000e+00  0.0000000000e+00  0.0000000000e+00  0.0000000000e+00 
 0.0000000000e+00  0.0000000000e+00  0.0000000000e+00  0.0000000000e+00  0.0000000000e+00 
 0.0000000000e+00  7.2912381123e+00  1.2499265335e+01  1.0416054446e+00  1.0416054446e+00 
 0.0000000000e+00  0.0000000000e+00  0.0000000000e+00  0.0000000000e+00  0.0000000000e+00 
 1.0416054446e+00  1.7707292558e+01  1.1457659891e+01  2.0832108892e+00  0.0000000000e+00 
 0.0000000000e+00  0.0000000000e+00  0.0000000000e+00  0.0000000000e+00  0.0000000000e+00 
 0.0000000000e+00  0.0000000000e+00  0.0000000000e+00  4.1664217784e+00  1.0416054446e+00 
 0.0000000000e+00  0.0000000000e+00  0.0000000000e+00  0.0000000000e+00  0.0000000000e+00 
 0.0000000000e+00  1.0416054446e+01  3.6456190561e+01  3.3331374228e+01  1.0416054446e+00 
 0.0000000000e+00  0.0000000000e+00  0.0000000000e+00  0.0000000000e+00  0.0000000000e+00 
 0.0000000000e+00  0.0000000000e+00  0.0000000000e+00  0.0000000000e+00  2.0832108892e+00 
 3.1248163338e+00  0.0000000000e+00  0.0000000000e+00  0.0000000000e+00  0.0000000000e+00 
 0.0000000000e+00  3.1248163338e+00  1.6665687114e+01  6.0413115788e+01  2.7081741560e+01 
 2.0832108892e+00  1.0416054446e+00  0.0000000000e+00  0.0000000000e+00  0.0000000000e+00 
 0.0000000000e+00  0.0000000000e+00  0.0000000000e+00  0.0000000000e+00  0.0000000000e+00 
 3.1248163338e+00  4.1664217784e+00  0.0000000000e+00  0.0000000000e+00  0.0000000000e+00 
 0.0000000000e+00  3.1248163338e+00  2.6040136115e+01  3.6456190561e+01  4.2705823229e+01 
 1.6665687114e+01  5.2080272231e+00  4.1664217784e+00  2.0832108892e+00  0.0000000000e+00 
 0.0000000000e+00  0.0000000000e+00  0.0000000000e+00  0.0000000000e+00  0.0000000000e+00 
 0.0000000000e+00  4.1664217784e+00  5.2080272231e+00  0.0000000000e+00  0.0000000000e+00 
 0.0000000000e+00  8.3328435569e+00  2.7081741560e+01  4.0622612340e+01  5.5205088564e+01 
 5.5205088564e+01  3.4372979672e+01  9.3744490015e+00  3.1248163338e+00  6.2496326677e+00 
 6.2496326677e+00  3.1248163338e+00  0.0000000000e+00  0.0000000000e+00  0.0000000000e+00 
 0.0000000000e+00  0.0000000000e+00  2.0832108892e+00  2.0832108892e+00  0.0000000000e+00 
 0.0000000000e+00  0.0000000000e+00  2.0832108892e+00  5.2080272231e+00  3.1248163338e+01 
 2.4998530671e+01  2.1873714337e+01  3.7497796006e+01  3.4372979672e+01  3.1248163338e+01 
 7.2912381123e+01  7.0829170234e+01  1.2499265335e+01  1.0416054446e+00  1.0416054446e+00 
 1.0416054446e+00  2.0832108892e+00  4.1664217784e+00  2.0832108892e+00  0.0000000000e+00 
 0.0000000000e+00  0.0000000000e+00  0.0000000000e+00  0.0000000000e+00  1.0416054446e+00 
 2.0832108892e+00  9.3744490015e+00  9.3744490015e+00  1.9790503448e+01  3.7497796006e+01 
 5.2080272231e+01  3.9581006895e+01  2.4998530671e+01  1.0416054446e+00  4.1664217784e+00 
 5.2080272231e+00  4.1664217784e+00  1.2499265335e+01  3.1248163338e+00  0.0000000000e+00 
 0.0000000000e+00  0.0000000000e+00  0.0000000000e+00  0.0000000000e+00  0.0000000000e+00 
 0.0000000000e+00  0.0000000000e+00  0.0000000000e+00  2.0832108892e+00  1.1457659891e+01 
 3.7497796006e+01  1.5624081669e+01  2.0832108892e+00  0.0000000000e+00  0.0000000000e+00 
 0.0000000000e+00  5.2080272231e+00  7.2912381123e+00  5.2080272231e+00  0.0000000000e+00 
 0.0000000000e+00  0.0000000000e+00  0.0000000000e+00  0.0000000000e+00  0.0000000000e+00 
 0.0000000000e+00  0.0000000000e+00  0.0000000000e+00  0.0000000000e+00  2.0832108892e+00 
 4.0622612340e+01  5.8329904898e+01  5.2080272231e+00  0.0000000000e+00  0.0000000000e+00 
 0.0000000000e+00  0.0000000000e+00  0.0000000000e+00  1.0416054446e+00  2.0832108892e+00 
 3.1248163338e+00  0.0000000000e+00  0.0000000000e+00  0.0000000000e+00  0.0000000000e+00 
 0.0000000000e+00  0.0000000000e+00  0.0000000000e+00  0.0000000000e+00  0.0000000000e+00 
 0.0000000000e+00  1.6665687114e+01  1.4582476225e+01  1.0416054446e+00  0.0000000000e+00 
 0.0000000000e+00  0.0000000000e+00  0.0000000000e+00  0.0000000000e+00  0.0000000000e+00 
 2.0832108892e+00  0.0000000000e+00  0.0000000000e+00  0.0000000000e+00  0.0000000000e+00 
 0.0000000000e+00  0.0000000000e+00  0.0000000000e+00  0.0000000000e+00  0.0000000000e+00 
 0.0000000000e+00  0.0000000000e+00  1.0416054446e+00  1.4582476225e+01  2.0832108892e+00 
 0.0000000000e+00  0.0000000000e+00  0.0000000000e+00  0.0000000000e+00  0.0000000000e+00 
 6.2496326677e+00  1.3540870780e+01  9.3744490015e+00  0.0000000000e+00  0.0000000000e+00 
 0.0000000000e+00  0.0000000000e+00  0.0000000000e+00  0.0000000000e+00  0.0000000000e+00 
 0.0000000000e+00  0.0000000000e+00  0.0000000000e+00  0.0000000000e+00  3.1248163338e+00 
 0.0000000000e+00  0.0000000000e+00  0.0000000000e+00  0.0000000000e+00  0.0000000000e+00 
 1.0416054446e+00  1.0416054446e+01  4.6872245008e+01  3.7497796006e+01  4.1664217784e+00 
 0.0000000000e+00  0.0000000000e+00  0.0000000000e+00  0.0000000000e+00  0.0000000000e+00 
 0.0000000000e+00  0.0000000000e+00  0.0000000000e+00  0.0000000000e+00  0.0000000000e+00 
 0.0000000000e+00  9.3744490015e+00  5.2080272231e+00  1.0416054446e+00  1.0416054446e+00 
 0.0000000000e+00  1.0416054446e+00  4.1664217784e+00  2.6040136115e+01  4.2705823229e+01 
 2.0832108892e+00  0.0000000000e+00  0.0000000000e+00  0.0000000000e+00  0.0000000000e+00 
 0.0000000000e+00  0.0000000000e+00  0.0000000000e+00  0.0000000000e+00  0.0000000000e+00 
 0.0000000000e+00  0.0000000000e+00  8.3328435569e+00  6.2496326677e+00  7.2912381123e+00 
 8.3328435569e+00  8.3328435569e+00  9.3744490015e+00  3.1248163338e+00  2.0832108892e+00 
 2.0832108892e+00  0.0000000000e+00  0.0000000000e+00  0.0000000000e+00  0.0000000000e+00 
 0.0000000000e+00  0.0000000000e+00  0.0000000000e+00  0.0000000000e+00  0.0000000000e+00 
 0.0000000000e+00  0.0000000000e+00  0.0000000000e+00  1.0416054446e+00  1.0416054446e+00 
 8.3328435569e+00  2.9164952449e+01  6.1454721232e+01  2.0832108892e+01  3.1248163338e+00 
 0.0000000000e+00  0.0000000000e+00  0.0000000000e+00  0.0000000000e+00  1.0416054446e+00 
 8.3328435569e+00  1.0416054446e+00  1.0416054446e+00  0.0000000000e+00  0.0000000000e+00 
 0.0000000000e+00  0.0000000000e+00  0.0000000000e+00  0.0000000000e+00  0.0000000000e+00 
 0.0000000000e+00  1.0416054446e+00  1.9790503448e+01  6.5621143011e+01  2.8123347005e+01 
 4.1664217784e+00  0.0000000000e+00  0.0000000000e+00  0.0000000000e+00  6.2496326677e+00 
 2.4998530671e+01  3.0206557894e+01  4.1664217784e+00  6.2496326677e+00  0.0000000000e+00 
 0.0000000000e+00  0.0000000000e+00  1.0416054446e+00  0.0000000000e+00  0.0000000000e+00 
 0.0000000000e+00  0.0000000000e+00  0.0000000000e+00  5.2080272231e+00  1.7707292558e+01 
 1.0416054446e+01  0.0000000000e+00  0.0000000000e+00  0.0000000000e+00  0.0000000000e+00 
 1.1457659891e+01  3.3331374228e+01  8.0203619235e+01  1.4582476225e+01  5.2080272231e+00 
 2.0832108892e+00  0.0000000000e+00  0.0000000000e+00  1.0416054446e+00  0.0000000000e+00 
 0.0000000000e+00  0.0000000000e+00  0.0000000000e+00  0.0000000000e+00  0.0000000000e+00 
 0.0000000000e+00  0.0000000000e+00  0.0000000000e+00  2.0832108892e+00  3.1248163338e+00 
 4.1664217784e+00  4.1664217784e+00  1.1457659891e+01  2.0832108892e+01  5.2080272231e+00 
 0.0000000000e+00  1.0416054446e+00  0.0000000000e+00  1.0416054446e+00  0.0000000000e+00 
 0.0000000000e+00  0.0000000000e+00  0.0000000000e+00  0.0000000000e+00  0.0000000000e+00 
 0.0000000000e+00  0.0000000000e+00  0.0000000000e+00  0.0000000000e+00  1.0416054446e+00 
 3.1248163338e+00  1.0416054446e+01  8.3328435569e+00  1.0416054446e+01  1.0416054446e+00 
 0.0000000000e+00  0.0000000000e+00  0.0000000000e+00  0.0000000000e+00  1.0416054446e+00 
 3.1248163338e+00  1.0416054446e+00  0.0000000000e+00  0.0000000000e+00  0.0000000000e+00 
 0.0000000000e+00  0.0000000000e+00  0.0000000000e+00  0.0000000000e+00  0.0000000000e+00 
 3.1248163338e+00  2.3956925226e+01  2.2915319781e+01  1.3540870780e+01  4.1664217784e+00 
 0.0000000000e+00  0.0000000000e+00  0.0000000000e+00  0.0000000000e+00  0.0000000000e+00 
 2.0832108892e+00  3.1248163338e+00  1.0416054446e+00  1.0416054446e+00  0.0000000000e+00 
 0.0000000000e+00  0.0000000000e+00  0.0000000000e+00  0.0000000000e+00  0.0000000000e+00 
 0.0000000000e+00  0.0000000000e+00  1.1457659891e+01  2.3956925226e+01  4.1664217784e+00 
 0.0000000000e+00  0.0000000000e+00  0.0000000000e+00  0.0000000000e+00  0.0000000000e+00 
 1.0416054446e+00  9.3744490015e+00  2.1873714337e+01  1.9790503448e+01  0.0000000000e+00 
 0.0000000000e+00  0.0000000000e+00  0.0000000000e+00  0.0000000000e+00  0.0000000000e+00 
 0.0000000000e+00  0.0000000000e+00  0.0000000000e+00  0.0000000000e+00  2.0832108892e+00 
 0.0000000000e+00  0.0000000000e+00  0.0000000000e+00  0.0000000000e+00  0.0000000000e+00 
 0.0000000000e+00  2.0832108892e+00  1.0416054446e+01  2.7081741560e+01  2.2915319781e+01 
 5.2080272231e+00  0.0000000000e+00  0.0000000000e+00  0.0000000000e+00  0.0000000000e+00 
 0.0000000000e+00  0.0000000000e+00  0.0000000000e+00  0.0000000000e+00  0.0000000000e+00 
 1.0416054446e+00  1.0416054446e+00  0.0000000000e+00  0.0000000000e+00  0.0000000000e+00 
 2.0832108892e+00  0.0000000000e+00  1.0416054446e+00  1.0416054446e+01  8.3328435569e+00 
 7.2912381123e+00  7.2912381123e+00  1.0416054446e+00  0.0000000000e+00  0.0000000000e+00 
 0.0000000000e+00  0.0000000000e+00  0.0000000000e+00  0.0000000000e+00  0.0000000000e+00 
 0.0000000000e+00  0.0000000000e+00  3.1248163338e+00  0.0000000000e+00  0.0000000000e+00 
 0.0000000000e+00  4.1664217784e+00  1.3540870780e+01  1.5624081669e+01  4.1664217784e+00 
 1.0416054446e+00  0.0000000000e+00  3.1248163338e+00  3.1248163338e+00  0.0000000000e+00 
 0.0000000000e+00  0.0000000000e+00  0.0000000000e+00  0.0000000000e+00  0.0000000000e+00 
 0.0000000000e+00  0.0000000000e+00  2.0832108892e+00  1.0416054446e+00  0.0000000000e+00 
 0.0000000000e+00  0.0000000000e+00  7.2912381123e+00  5.2080272231e+01  1.7707292558e+01 
 4.1664217784e+00  2.0832108892e+00  0.0000000000e+00  0.0000000000e+00  0.0000000000e+00 
 6.2496326677e+00  8.3328435569e+00  3.1248163338e+00  0.0000000000e+00  0.0000000000e+00 
 0.0000000000e+00  0.0000000000e+00  0.0000000000e+00  0.0000000000e+00  0.0000000000e+00 
 0.0000000000e+00  0.0000000000e+00  1.0416054446e+00  3.1248163338e+00  1.6665687114e+01 
 8.3328435569e+00  0.0000000000e+00  0.0000000000e+00  0.0000000000e+00  0.0000000000e+00 
 2.0832108892e+00  3.3331374228e+01  7.1870775678e+01  2.8123347005e+01  0.0000000000e+00 
 0.0000000000e+00  1.0416054446e+00  0.0000000000e+00  0.0000000000e+00  0.0000000000e+00 
 0.0000000000e+00  0.0000000000e+00  0.0000000000e+00  0.0000000000e+00  0.0000000000e+00 
 0.0000000000e+00  0.0000000000e+00  0.0000000000e+00  0.0000000000e+00  0.0000000000e+00 
 0.0000000000e+00  2.0832108892e+00  1.8748898003e+01  3.6456190561e+01  1.7707292558e+01 
 2.0832108892e+00  1.0416054446e+00  3.1248163338e+00  2.0832108892e+00  0.0000000000e+00 
 0.0000000000e+00  0.0000000000e+00  0.0000000000e+00  0.0000000000e+00  0.0000000000e+00 
 0.0000000000e+00  0.0000000000e+00  0.0000000000e+00  0.0000000000e+00  0.0000000000e+00 
 6.2496326677e+00  7.2912381123e+00  8.3328435569e+00  1.0416054446e+01  4.1664217784e+00 
 2.0832108892e+00  0.0000000000e+00  7.2912381123e+00  8.3328435569e+00  2.0832108892e+00 
 0.0000000000e+00  0.0000000000e+00  0.0000000000e+00  0.0000000000e+00  0.0000000000e+00 
 0.0000000000e+00  0.0000000000e+00  0.0000000000e+00  0.0000000000e+00  0.0000000000e+00 
 0.0000000000e+00  8.3328435569e+00  2.1873714337e+01  5.2080272231e+00  1.0416054446e+00 
 0.0000000000e+00  0.0000000000e+00  0.0000000000e+00  3.1248163338e+00  3.1248163338e+00 
 2.0832108892e+00  0.0000000000e+00  0.0000000000e+00  0.0000000000e+00  0.0000000000e+00 
 0.0000000000e+00  0.0000000000e+00  0.0000000000e+00  0.0000000000e+00  0.0000000000e+00 
 0.0000000000e+00  0.0000000000e+00  8.3328435569e+00  3.2289768783e+01  1.4582476225e+01 
 0.0000000000e+00  0.0000000000e+00  0.0000000000e+00  0.0000000000e+00  0.0000000000e+00 
 2.0832108892e+00  5.2080272231e+00  1.0416054446e+00  0.0000000000e+00  0.0000000000e+00 
 0.0000000000e+00  0.0000000000e+00  0.0000000000e+00  0.0000000000e+00  0.0000000000e+00 
 0.0000000000e+00  0.0000000000e+00  0.0000000000e+00  1.6665687114e+01  6.5621143011e+01 
 3.5414585117e+01  6.2496326677e+00  3.1248163338e+00  0.0000000000e+00  0.0000000000e+00 
 2.0832108892e+00  2.2915319781e+01  7.9162013791e+01  3.2289768783e+01  1.0416054446e+00 
 0.0000000000e+00  0.0000000000e+00  0.0000000000e+00  0.0000000000e+00  0.0000000000e+00 
 0.0000000000e+00  0.0000000000e+00  0.0000000000e+00  0.0000000000e+00  2.0832108892e+00 
 1.3540870780e+01  2.0832108892e+00  0.0000000000e+00  2.0832108892e+00  1.0416054446e+00 
 2.0832108892e+00  5.2080272231e+00  3.4372979672e+01  1.1457659891e+02  4.7913850452e+01 
 4.1664217784e+00  0.0000000000e+00  0.0000000000e+00  0.0000000000e+00  0.0000000000e+00 
 0.0000000000e+00  0.0000000000e+00  0.0000000000e+00  0.0000000000e+00  0.0000000000e+00 
 0.0000000000e+00  1.0416054446e+00  3.1248163338e+00  3.1248163338e+00  3.1248163338e+00 
 4.1664217784e+00  1.2499265335e+01  2.1873714337e+01  6.2496326677e+00  1.5624081669e+01 
 3.1248163338e+00  0.0000000000e+00  0.0000000000e+00  1.0416054446e+00  1.0416054446e+00 
 0.0000000000e+00  0.0000000000e+00  0.0000000000e+00  0.0000000000e+00  0.0000000000e+00 
 0.0000000000e+00  0.0000000000e+00  0.0000000000e+00  0.0000000000e+00  1.0416054446e+00 
 1.7707292558e+01  3.4372979672e+01  2.9164952449e+01  2.0832108892e+00  0.0000000000e+00 
 0.0000000000e+00  0.0000000000e+00  0.0000000000e+00  0.0000000000e+00  0.0000000000e+00 
 1.0416054446e+00  0.0000000000e+00  0.0000000000e+00  0.0000000000e+00  0.0000000000e+00 
 0.0000000000e+00  0.0000000000e+00  0.0000000000e+00  0.0000000000e+00  0.0000000000e+00 
 2.0832108892e+00  3.2289768783e+01  1.2290944246e+02  8.8536462792e+01  4.1664217784e+00 
 0.0000000000e+00  0.0000000000e+00  0.0000000000e+00  0.0000000000e+00  0.0000000000e+00 
 0.0000000000e+00  5.2080272231e+00  3.1248163338e+00  3.1248163338e+00  0.0000000000e+00 
 0.0000000000e+00  0.0000000000e+00  0.0000000000e+00  0.0000000000e+00  0.0000000000e+00 
 0.0000000000e+00  2.0832108892e+00  6.2496326677e+00  6.2496326677e+01  6.4579537566e+01 
 2.0832108892e+00  0.0000000000e+00  0.0000000000e+00  0.0000000000e+00  0.0000000000e+00 
 0.0000000000e+00  3.1248163338e+00  1.7707292558e+01  4.1664217784e+00  6.2496326677e+00 
 1.0416054446e+00  0.0000000000e+00  0.0000000000e+00  0.0000000000e+00  0.0000000000e+00 
 0.0000000000e+00  0.0000000000e+00  0.0000000000e+00  0.0000000000e+00  3.1248163338e+00 
 5.2080272231e+00  1.0416054446e+00  0.0000000000e+00  0.0000000000e+00  0.0000000000e+00 
 0.0000000000e+00  0.0000000000e+00  4.1664217784e+00  8.0203619235e+01  3.6456190561e+01 
 1.5624081669e+01  3.1248163338e+00  0.0000000000e+00  0.0000000000e+00  0.0000000000e+00 
 0.0000000000e+00  0.0000000000e+00  0.0000000000e+00  0.0000000000e+00  0.0000000000e+00 
 1.0416054446e+00  2.0832108892e+00  0.0000000000e+00  0.0000000000e+00  0.0000000000e+00 
 0.0000000000e+00  0.0000000000e+00  0.0000000000e+00  4.1664217784e+00  3.8539401451e+01 
 3.7497796006e+01  0.0000000000e+00  0.0000000000e+00  0.0000000000e+00  0.0000000000e+00 
 0.0000000000e+00  0.0000000000e+00  0.0000000000e+00  0.0000000000e+00  0.0000000000e+00 
 0.0000000000e+00  0.0000000000e+00  0.0000000000e+00  0.0000000000e+00  1.0416054446e+00 
 0.0000000000e+00  0.0000000000e+00  1.0416054446e+00  3.1248163338e+00  7.2912381123e+00 
 8.3328435569e+00  1.0416054446e+00  0.0000000000e+00  0.0000000000e+00  0.0000000000e+00 
 4.1664217784e+00  4.1664217784e+00  0.0000000000e+00  0.0000000000e+00  0.0000000000e+00 
 0.0000000000e+00  0.0000000000e+00  0.0000000000e+00  0.0000000000e+00  0.0000000000e+00 
 1.0416054446e+00  2.0832108892e+00  1.0416054446e+01  3.8539401451e+01  2.7081741560e+01 
 1.5624081669e+01  1.0416054446e+00  0.0000000000e+00  0.0000000000e+00  0.0000000000e+00 