Li32 Si4 Te24
 1.00 
 11.600472 0.0 -0.447362 
 0.0 11.706555 0.0 
 0.0 0.0 11.32942 
 Li Si Te
 32 4 24
direct
 0.16769800  0.18042100  0.53959700 
 0.53170100  0.36726300  0.32100000 
 0.17691500  0.55448700  0.85712100 
 0.53428700  0.57739000  0.29483300 
 0.96909800  0.20484300  0.29911100 
 0.50733100  0.15765600  0.79592500 
 0.90906000  0.68436600  0.12144600 
 0.50374500  0.85189400  0.83027900 
 0.60160900  0.04694700  0.22135100 
 0.71367300  0.57964100  0.74220300 
 0.26158100  0.03398500  0.92759000 
 0.11065900  0.50537000  0.21418700 
 0.20622500  0.75474600  0.02313400 
 0.94853200  0.65416200  0.81039000 
 0.38449200  0.29693600  0.97501700 
 0.68656300  0.20143800  0.01836900 
 0.67713300  0.88518900  0.02614100 
 0.89303300  0.93015700  0.78620700 
 0.72964500  0.41143300  0.45038900 
 0.81165500  0.44897100  0.11765100 
 0.38255200  0.90641000  0.22900900 
 0.09169700  0.98528400  0.26433500 
 0.32324600  0.46249000  0.69554300 
 0.98507300  0.32138500  0.88564200 
 0.43826300  0.29818500  0.58890800 
 0.87397600  0.06654200  0.65234100 
 0.50593800  0.74653600  0.59578700 
 0.80739800  0.04259000  0.37287400 
 0.31326800  0.54301200  0.40308900 
 0.19270900  0.86738000  0.50819100 
 0.75254700  0.75939600  0.51300200 
 0.02101100  0.73251200  0.37214000 
 0.99794700  0.06105800  0.97961500 
 0.01468500  0.48116100  0.51817300 
 0.47507200  0.03151200  0.48838200 
 0.50764200  0.52746200  0.98497800 
 0.14288100  0.17465800  0.10186600 
 0.15245400  0.61056700  0.62980800 
 0.64907900  0.13226200  0.57423300 
 0.65812500  0.63267800  0.10762600 
 0.88496500  0.94307300  0.13818100 
 0.87772800  0.38063600  0.66527000 
 0.35494900  0.92843000  0.64431100 
 0.39530800  0.45244400  0.15663200 
 0.82309800  0.14213900  0.86232100 
 0.86171000  0.57194700  0.35967200 
 0.36486700  0.16806600  0.36343100 
 0.38454500  0.65628200  0.86473000 
 0.10304200  0.89545000  0.86052200 
 0.13135200  0.36559100  0.39128200 
 0.57237000  0.87283800  0.37648600 
 0.60650800  0.39274200  0.86220300 
 0.25685200  0.25920900  0.77623900 
 0.73623400  0.79671000  0.75392700 
 0.76051100  0.25249600  0.25243200 
 0.22744500  0.71640400  0.27788100 
 0.01880200  0.99654700  0.45859100 
 0.53023200  0.50567800  0.51052700 
 0.01175000  0.53621900  0.99767300 
 0.49554100  0.02047400  0.99562900 
 
 24 24 23 
 0.0000000000e+00  0.0000000000e+00  0.0000000000e+00  0.0000000000e+00  0.0000000000e+00 
 0.0000000000e+00  2.2350484176e+00  0.0000000000e+00  0.0000000000e+00  0.0000000000e+00 
 0.0000000000e+00  0.0000000000e+00  0.0000000000e+00  0.0000000000e+00  0.0000000000e+00 
 0.0000000000e+00  0.0000000000e+00  0.0000000000e+00  0.0000000000e+00  0.0000000000e+00 
 0.0000000000e+00  0.0000000000e+00  0.0000000000e+00  0.0000000000e+00  0.0000000000e+00 
 0.0000000000e+00  0.0000000000e+00  0.0000000000e+00  0.0000000000e+00  0.0000000000e+00 
 1.1175242088e+00  6.7051452528e+00  0.0000000000e+00  0.0000000000e+00  0.0000000000e+00 
 0.0000000000e+00  0.0000000000e+00  0.0000000000e+00  0.0000000000e+00  0.0000000000e+00 
 4.4700968352e+00  7.8226694616e+00  1.1175242088e+00  0.0000000000e+00  0.0000000000e+00 
 0.0000000000e+00  0.0000000000e+00  0.0000000000e+00  0.0000000000e+00  0.0000000000e+00 
 0.0000000000e+00  0.0000000000e+00  0.0000000000e+00  0.0000000000e+00  2.2350484176e+00 
 4.4700968352e+00  2.2350484176e+00  0.0000000000e+00  0.0000000000e+00  0.0000000000e+00 
 0.0000000000e+00  0.0000000000e+00  0.0000000000e+00  0.0000000000e+00  4.4700968352e+00 
 2.1232959967e+01  4.4700968352e+00  0.0000000000e+00  0.0000000000e+00  0.0000000000e+00 
 0.0000000000e+00  0.0000000000e+00  0.0000000000e+00  0.0000000000e+00  0.0000000000e+00 
 0.0000000000e+00  1.1175242088e+00  0.0000000000e+00  1.2292766297e+01  1.8997911550e+01 
 6.7051452528e+00  0.0000000000e+00  0.0000000000e+00  0.0000000000e+00  0.0000000000e+00 
 0.0000000000e+00  0.0000000000e+00  0.0000000000e+00  1.7880387341e+01  3.1290677846e+01 
 4.4700968352e+00  0.0000000000e+00  0.0000000000e+00  0.0000000000e+00  0.0000000000e+00 
 0.0000000000e+00  0.0000000000e+00  0.0000000000e+00  0.0000000000e+00  0.0000000000e+00 
 0.0000000000e+00  3.3525726264e+00  2.0115435758e+01  6.9286500945e+01  5.0288589396e+01 
 5.5876210440e+00  1.1175242088e+00  0.0000000000e+00  0.0000000000e+00  0.0000000000e+00 
 3.3525726264e+00  3.2408202055e+01  8.7166888286e+01  4.8053540978e+01  3.3525726264e+00 
 0.0000000000e+00  0.0000000000e+00  0.0000000000e+00  0.0000000000e+00  0.0000000000e+00 
 0.0000000000e+00  0.0000000000e+00  0.0000000000e+00  1.1175242088e+00  0.0000000000e+00 
 6.7051452528e+00  1.4527814714e+01  6.1463831484e+01  5.1406113605e+01  1.4527814714e+01 
 1.1175242088e+00  1.1175242088e+00  0.0000000000e+00  7.8226694616e+00  2.1232959967e+01 
 7.1521549363e+01  1.1063489667e+02  4.8053540978e+01  7.8226694616e+00  0.0000000000e+00 
 0.0000000000e+00  0.0000000000e+00  0.0000000000e+00  0.0000000000e+00  0.0000000000e+00 
 0.0000000000e+00  1.1175242088e+00  7.8226694616e+00  1.0057717879e+01  1.8997911550e+01 
 1.3410290506e+01  1.8997911550e+01  7.8226694616e+00  3.3525726264e+00  1.1175242088e+00 
 0.0000000000e+00  5.5876210440e+00  1.0057717879e+01  1.4527814714e+01  3.7995823099e+01 
 2.5703056802e+01  2.5703056802e+01  1.4527814714e+01  5.5876210440e+00  1.2292766297e+01 
 2.2350484176e+00  8.9401936704e+00  0.0000000000e+00  0.0000000000e+00  6.7051452528e+00 
 6.7051452528e+00  2.3468008385e+01  4.4700968352e+01  3.0173153638e+01  8.9401936704e+00 
 7.8226694616e+00  0.0000000000e+00  0.0000000000e+00  0.0000000000e+00  0.0000000000e+00 
 0.0000000000e+00  2.2350484176e+00  0.0000000000e+00  1.1175242088e+00  0.0000000000e+00 
 1.4527814714e+01  3.6878298890e+01  5.0288589396e+01  3.2408202055e+01  2.4585532594e+01 
 1.0057717879e+01  5.5876210440e+00  0.0000000000e+00  1.1175242088e+00  1.3410290506e+01 
 2.7938105220e+01  5.3641162022e+01  3.3525726264e+01  5.5876210440e+00  1.1175242088e+00 
 0.0000000000e+00  0.0000000000e+00  0.0000000000e+00  0.0000000000e+00  0.0000000000e+00 
 0.0000000000e+00  0.0000000000e+00  0.0000000000e+00  1.1175242088e+00  1.0057717879e+01 
 3.4643250473e+01  6.3698879901e+01  3.0173153638e+01  8.9401936704e+00  0.0000000000e+00 
 0.0000000000e+00  0.0000000000e+00  0.0000000000e+00  1.1175242088e+00  3.3525726264e+00 
 5.5876210440e+00  1.2292766297e+01  5.5876210440e+00  0.0000000000e+00  0.0000000000e+00 
 0.0000000000e+00  0.0000000000e+00  0.0000000000e+00  0.0000000000e+00  0.0000000000e+00 
 0.0000000000e+00  0.0000000000e+00  0.0000000000e+00  1.1175242088e+00  2.9055629429e+01 
 3.7995823099e+01  6.7051452528e+00  0.0000000000e+00  0.0000000000e+00  0.0000000000e+00 
 0.0000000000e+00  0.0000000000e+00  0.0000000000e+00  1.1175242088e+00  2.2350484176e+00 
 7.8226694616e+00  1.1175242088e+00  0.0000000000e+00  0.0000000000e+00  0.0000000000e+00 
 0.0000000000e+00  0.0000000000e+00  0.0000000000e+00  0.0000000000e+00  0.0000000000e+00 
 0.0000000000e+00  0.0000000000e+00  1.1175242088e+00  2.5703056802e+01  2.0115435758e+01 
 0.0000000000e+00  0.0000000000e+00  0.0000000000e+00  0.0000000000e+00  0.0000000000e+00 
 0.0000000000e+00  0.0000000000e+00  0.0000000000e+00  1.1175242088e+00  4.4700968352e+00 
 1.1175242088e+00  1.1175242088e+00  0.0000000000e+00  0.0000000000e+00  0.0000000000e+00 
 0.0000000000e+00  0.0000000000e+00  0.0000000000e+00  0.0000000000e+00  0.0000000000e+00 
 0.0000000000e+00  5.5876210440e+00  4.4700968352e+00  2.2350484176e+00  0.0000000000e+00 
 0.0000000000e+00  0.0000000000e+00  0.0000000000e+00  0.0000000000e+00  0.0000000000e+00 
 0.0000000000e+00  0.0000000000e+00  2.2350484176e+00  6.7051452528e+00  3.3525726264e+00 
 0.0000000000e+00  0.0000000000e+00  0.0000000000e+00  0.0000000000e+00  0.0000000000e+00 
 0.0000000000e+00  0.0000000000e+00  0.0000000000e+00  0.0000000000e+00  0.0000000000e+00 
 4.4700968352e+00  6.7051452528e+00  1.1175242088e+00  0.0000000000e+00  0.0000000000e+00 
 0.0000000000e+00  0.0000000000e+00  0.0000000000e+00  0.0000000000e+00  0.0000000000e+00 
 0.0000000000e+00  2.2350484176e+00  1.3410290506e+01  6.7051452528e+00  0.0000000000e+00 
 0.0000000000e+00  0.0000000000e+00  0.0000000000e+00  0.0000000000e+00  0.0000000000e+00 
 0.0000000000e+00  0.0000000000e+00  0.0000000000e+00  0.0000000000e+00  0.0000000000e+00 
 2.2350484176e+00  3.3525726264e+00  0.0000000000e+00  0.0000000000e+00  0.0000000000e+00 
 0.0000000000e+00  0.0000000000e+00  0.0000000000e+00  0.0000000000e+00  0.0000000000e+00 
 7.8226694616e+00  4.1348395725e+01  1.2292766297e+01  0.0000000000e+00  0.0000000000e+00 
 0.0000000000e+00  0.0000000000e+00  0.0000000000e+00  0.0000000000e+00  0.0000000000e+00 
 0.0000000000e+00  0.0000000000e+00  1.1175242088e+00  3.3525726264e+00  1.0057717879e+01 
 5.5876210440e+00  0.0000000000e+00  0.0000000000e+00  0.0000000000e+00  0.0000000000e+00 
 0.0000000000e+00  0.0000000000e+00  0.0000000000e+00  1.1175242088e+00  3.6878298890e+01 
 4.1348395725e+01  4.4700968352e+00  0.0000000000e+00  0.0000000000e+00  0.0000000000e+00 
 0.0000000000e+00  0.0000000000e+00  0.0000000000e+00  0.0000000000e+00  0.0000000000e+00 
 0.0000000000e+00  0.0000000000e+00  0.0000000000e+00  1.2292766297e+01  2.5703056802e+01 
 3.3525726264e+00  0.0000000000e+00  0.0000000000e+00  0.0000000000e+00  0.0000000000e+00 
 0.0000000000e+00  4.4700968352e+00  1.3410290506e+01  1.3186785664e+02  7.5991646198e+01 
 8.9401936704e+00  1.1175242088e+00  0.0000000000e+00  0.0000000000e+00  0.0000000000e+00 
 0.0000000000e+00  0.0000000000e+00  0.0000000000e+00  0.0000000000e+00  0.0000000000e+00 
 1.1175242088e+00  1.1175242088e+00  2.9055629429e+01  9.3872033539e+01  2.4585532594e+01 
 6.7051452528e+00  2.2350484176e+00  3.3525726264e+00  3.3525726264e+00  1.2292766297e+01 
 1.4527814714e+01  1.8997911550e+01  5.3641162022e+01  4.2465919934e+01  1.4527814714e+01 
 5.5876210440e+00  0.0000000000e+00  0.0000000000e+00  0.0000000000e+00  0.0000000000e+00 
 0.0000000000e+00  0.0000000000e+00  0.0000000000e+00  0.0000000000e+00  3.3525726264e+00 
 7.8226694616e+00  2.9055629429e+01  4.9171065187e+01  2.9055629429e+01  6.7051452528e+00 
 7.8226694616e+00  1.1175242088e+00  0.0000000000e+00  2.2350484176e+00  4.4700968352e+00 
 4.4700968352e+00  8.9401936704e+00  1.6762863132e+01  2.0115435758e+01  1.2292766297e+01 
 1.3410290506e+01  1.5645338923e+01  6.7051452528e+00  1.2292766297e+01  1.1175242088e+00 
 5.5876210440e+00  5.5876210440e+00  8.9401936704e+00  1.5645338923e+01  6.7051452528e+00 
 8.9401936704e+00  1.3410290506e+01  4.4700968352e+00  6.7051452528e+00  2.2350484176e+00 
 3.3525726264e+00  0.0000000000e+00  0.0000000000e+00  0.0000000000e+00  0.0000000000e+00 
 0.0000000000e+00  1.1175242088e+00  1.4527814714e+01  3.2408202055e+01  4.8053540978e+01 
 3.2408202055e+01  1.1175242088e+01  1.1175242088e+00  5.5876210440e+00  1.4527814714e+01 
 2.6820581011e+01  5.2523637813e+01  7.5991646198e+01  4.1348395725e+01  5.5876210440e+00 
 1.1175242088e+00  0.0000000000e+00  0.0000000000e+00  0.0000000000e+00  0.0000000000e+00 
 0.0000000000e+00  0.0000000000e+00  0.0000000000e+00  0.0000000000e+00  0.0000000000e+00 
 0.0000000000e+00  2.4585532594e+01  5.9228783066e+01  6.5933928319e+01  1.0057717879e+01 
 1.1175242088e+00  0.0000000000e+00  2.2350484176e+00  3.3525726264e+00  4.4700968352e+00 
 3.1290677846e+01  7.1521549363e+01  1.7880387341e+01  0.0000000000e+00  0.0000000000e+00 
 0.0000000000e+00  0.0000000000e+00  0.0000000000e+00  0.0000000000e+00  0.0000000000e+00 
 0.0000000000e+00  0.0000000000e+00  0.0000000000e+00  0.0000000000e+00  1.1175242088e+00 
 1.7880387341e+01  3.4643250473e+01  1.2292766297e+01  0.0000000000e+00  0.0000000000e+00 
 0.0000000000e+00  0.0000000000e+00  0.0000000000e+00  0.0000000000e+00  3.3525726264e+00 
 1.0057717879e+01  6.7051452528e+00  0.0000000000e+00  0.0000000000e+00  0.0000000000e+00 
 0.0000000000e+00  0.0000000000e+00  0.0000000000e+00  0.0000000000e+00  0.0000000000e+00 
 0.0000000000e+00  0.0000000000e+00  0.0000000000e+00  2.2350484176e+00  1.0057717879e+01 
 1.3410290506e+01  0.0000000000e+00  0.0000000000e+00  0.0000000000e+00  0.0000000000e+00 
 0.0000000000e+00  0.0000000000e+00  0.0000000000e+00  0.0000000000e+00  2.2350484176e+00 
 6.7051452528e+00  1.1175242088e+00  0.0000000000e+00  0.0000000000e+00  0.0000000000e+00 
 0.0000000000e+00  0.0000000000e+00  0.0000000000e+00  0.0000000000e+00  0.0000000000e+00 
 0.0000000000e+00  0.0000000000e+00  0.0000000000e+00  2.2350484176e+00  7.8226694616e+00 
 0.0000000000e+00  0.0000000000e+00  0.0000000000e+00  0.0000000000e+00  0.0000000000e+00 
 0.0000000000e+00  0.0000000000e+00  0.0000000000e+00  0.0000000000e+00  3.3525726264e+00 
 1.1175242088e+00  0.0000000000e+00  0.0000000000e+00  0.0000000000e+00  0.0000000000e+00 
 0.0000000000e+00  0.0000000000e+00  0.0000000000e+00  0.0000000000e+00  0.0000000000e+00 
 0.0000000000e+00  2.2350484176e+00  4.4700968352e+00  5.5876210440e+00  0.0000000000e+00 
 0.0000000000e+00  0.0000000000e+00  0.0000000000e+00  0.0000000000e+00  0.0000000000e+00 
 0.0000000000e+00  0.0000000000e+00  2.2350484176e+00  2.2350484176e+00  1.1175242088e+00 
 0.0000000000e+00  0.0000000000e+00  0.0000000000e+00  0.0000000000e+00  0.0000000000e+00 
 0.0000000000e+00  0.0000000000e+00  0.0000000000e+00  0.0000000000e+00  0.0000000000e+00 
 0.0000000000e+00  7.8226694616e+00  3.3525726264e+00  0.0000000000e+00  0.0000000000e+00 
 0.0000000000e+00  0.0000000000e+00  0.0000000000e+00  0.0000000000e+00  0.0000000000e+00 
 0.0000000000e+00  3.3525726264e+00  1.5645338923e+01  4.4700968352e+00  0.0000000000e+00 
 0.0000000000e+00  0.0000000000e+00  0.0000000000e+00  0.0000000000e+00  0.0000000000e+00 
 0.0000000000e+00  0.0000000000e+00  0.0000000000e+00  0.0000000000e+00  0.0000000000e+00 
 0.0000000000e+00  3.3525726264e+00  1.1175242088e+00  0.0000000000e+00  0.0000000000e+00 
 0.0000000000e+00  0.0000000000e+00  0.0000000000e+00  0.0000000000e+00  1.1175242088e+00 
 2.2350484176e+01  4.9171065187e+01  2.1232959967e+01  1.1175242088e+00  0.0000000000e+00 
 0.0000000000e+00  0.0000000000e+00  0.0000000000e+00  0.0000000000e+00  0.0000000000e+00 
 0.0000000000e+00  0.0000000000e+00  0.0000000000e+00  0.0000000000e+00  2.2350484176e+00 
 7.8226694616e+00  1.2292766297e+01  1.1175242088e+00  0.0000000000e+00  0.0000000000e+00 
 0.0000000000e+00  0.0000000000e+00  0.0000000000e+00  5.5876210440e+00  4.6936016769e+01 
 5.9228783066e+01  2.7938105220e+01  2.2350484176e+00  0.0000000000e+00  0.0000000000e+00 
 0.0000000000e+00  0.0000000000e+00  0.0000000000e+00  0.0000000000e+00  0.0000000000e+00 
 0.0000000000e+00  0.0000000000e+00  0.0000000000e+00  2.2350484176e+00  2.1232959967e+01 
 1.8997911550e+01  3.3525726264e+00  0.0000000000e+00  1.1175242088e+00  0.0000000000e+00 
 1.1175242088e+00  2.2350484176e+00  1.6762863132e+01  5.3641162022e+01  5.6993734649e+01 
 1.1175242088e+01  0.0000000000e+00  0.0000000000e+00  0.0000000000e+00  0.0000000000e+00 
 0.0000000000e+00  0.0000000000e+00  0.0000000000e+00  0.0000000000e+00  0.0000000000e+00 
 0.0000000000e+00  0.0000000000e+00  2.2350484176e+00  1.2292766297e+01  1.4527814714e+01 
 0.0000000000e+00  0.0000000000e+00  4.4700968352e+00  1.0057717879e+01  2.0115435758e+01 
 3.2408202055e+01  4.1348395725e+01  6.4816404110e+01  3.6878298890e+01  3.3525726264e+00 
 3.3525726264e+00  0.0000000000e+00  1.1175242088e+00  0.0000000000e+00  0.0000000000e+00 
 1.1175242088e+00  0.0000000000e+00  2.2350484176e+00  1.1175242088e+00  1.1175242088e+00 
 1.1175242088e+00  1.1175242088e+00  2.2350484176e+00  1.1175242088e+00  0.0000000000e+00 
 0.0000000000e+00  1.1175242088e+00  1.3410290506e+01  3.3525726264e+01  3.5760774682e+01 
 2.7938105220e+01  2.5703056802e+01  1.2292766297e+01  7.8226694616e+00  2.2350484176e+00 
 1.1175242088e+01  1.2292766297e+01  1.0057717879e+01  4.4700968352e+00  1.0057717879e+01 
 5.5876210440e+00  2.2350484176e+00  1.6762863132e+01  7.8226694616e+00  3.3525726264e+00 
 2.2350484176e+00  0.0000000000e+00  0.0000000000e+00  0.0000000000e+00  0.0000000000e+00 
 0.0000000000e+00  2.2350484176e+00  5.5876210440e+00  6.7051452528e+00  7.8226694616e+00 
 2.2350484176e+00  7.8226694616e+00  1.3410290506e+01  3.4643250473e+01  3.6878298890e+01 
 5.0288589396e+01  5.4758686231e+01  1.4527814714e+01  1.1175242088e+00  5.5876210440e+00 
 1.3410290506e+01  2.1232959967e+01  2.2350484176e+01  6.7051452528e+00  0.0000000000e+00 
 0.0000000000e+00  0.0000000000e+00  0.0000000000e+00  0.0000000000e+00  0.0000000000e+00 
 0.0000000000e+00  0.0000000000e+00  1.1175242088e+00  0.0000000000e+00  3.3525726264e+00 
 2.2350484176e+00  2.7938105220e+01  4.9171065187e+01  3.1290677846e+01  1.2292766297e+01 
 1.0057717879e+01  1.1175242088e+00  0.0000000000e+00  0.0000000000e+00  0.0000000000e+00 
 2.2350484176e+00  4.4700968352e+00  1.1175242088e+00  0.0000000000e+00  0.0000000000e+00 
 0.0000000000e+00  0.0000000000e+00  0.0000000000e+00  0.0000000000e+00  0.0000000000e+00 
 0.0000000000e+00  0.0000000000e+00  0.0000000000e+00  0.0000000000e+00  1.8997911550e+01 
 3.2408202055e+01  4.0230871517e+01  1.0057717879e+01  0.0000000000e+00  0.0000000000e+00 
 0.0000000000e+00  0.0000000000e+00  0.0000000000e+00  0.0000000000e+00  0.0000000000e+00 
 2.2350484176e+00  1.1175242088e+00  0.0000000000e+00  0.0000000000e+00  0.0000000000e+00 
 0.0000000000e+00  0.0000000000e+00  0.0000000000e+00  0.0000000000e+00  0.0000000000e+00 
 0.0000000000e+00  0.0000000000e+00  0.0000000000e+00  2.9055629429e+01  6.7051452528e+01 
 2.2350484176e+01  1.1175242088e+00  0.0000000000e+00  0.0000000000e+00  0.0000000000e+00 
 0.0000000000e+00  0.0000000000e+00  0.0000000000e+00  0.0000000000e+00  2.2350484176e+00 
 5.5876210440e+00  2.2350484176e+00  0.0000000000e+00  0.0000000000e+00  0.0000000000e+00 
 0.0000000000e+00  0.0000000000e+00  0.0000000000e+00  0.0000000000e+00  0.0000000000e+00 
 0.0000000000e+00  0.0000000000e+00  2.3468008385e+01  5.1406113605e+01  1.1175242088e+01 
 0.0000000000e+00  0.0000000000e+00  0.0000000000e+00  0.0000000000e+00  0.0000000000e+00 
 0.0000000000e+00  0.0000000000e+00  0.0000000000e+00  1.1175242088e+00  1.0057717879e+01 
 1.1175242088e+00  0.0000000000e+00  0.0000000000e+00  0.0000000000e+00  0.0000000000e+00 
 0.0000000000e+00  0.0000000000e+00  0.0000000000e+00  0.0000000000e+00  0.0000000000e+00 
 0.0000000000e+00  5.5876210440e+00  2.6820581011e+01  6.7051452528e+00  0.0000000000e+00 
 0.0000000000e+00  0.0000000000e+00  0.0000000000e+00  0.0000000000e+00  0.0000000000e+00 
 0.0000000000e+00  0.0000000000e+00  4.4700968352e+00  3.0173153638e+01  2.0115435758e+01 
 1.1175242088e+00  0.0000000000e+00  0.0000000000e+00  0.0000000000e+00  0.0000000000e+00 
 0.0000000000e+00  0.0000000000e+00  0.0000000000e+00  0.0000000000e+00  0.0000000000e+00 
 1.1175242088e+00  2.2350484176e+00  2.2350484176e+00  0.0000000000e+00  0.0000000000e+00 
 0.0000000000e+00  0.0000000000e+00  0.0000000000e+00  0.0000000000e+00  0.0000000000e+00 
 0.0000000000e+00  1.3410290506e+01  9.4989557748e+01  3.6878298890e+01  5.5876210440e+00 
 0.0000000000e+00  0.0000000000e+00  0.0000000000e+00  0.0000000000e+00  0.0000000000e+00 
 0.0000000000e+00  0.0000000000e+00  0.0000000000e+00  0.0000000000e+00  0.0000000000e+00 
 3.3525726264e+00  6.7051452528e+00  0.0000000000e+00  0.0000000000e+00  0.0000000000e+00 
 0.0000000000e+00  0.0000000000e+00  0.0000000000e+00  0.0000000000e+00  0.0000000000e+00 
 2.4585532594e+01  7.8226694616e+01  3.7995823099e+01  5.5876210440e+00  0.0000000000e+00 
 0.0000000000e+00  0.0000000000e+00  0.0000000000e+00  0.0000000000e+00  0.0000000000e+00 
 0.0000000000e+00  0.0000000000e+00  0.0000000000e+00  0.0000000000e+00  1.1175242088e+00 
 1.0057717879e+01  5.5876210440e+00  0.0000000000e+00  0.0000000000e+00  0.0000000000e+00 
 1.1175242088e+00  0.0000000000e+00  5.5876210440e+00  1.4527814714e+01  6.5933928319e+01 
 5.8111258857e+01  2.0115435758e+01  6.7051452528e+00  0.0000000000e+00  0.0000000000e+00 
 0.0000000000e+00  0.0000000000e+00  0.0000000000e+00  0.0000000000e+00  0.0000000000e+00 
 0.0000000000e+00  1.1175242088e+00  0.0000000000e+00  7.8226694616e+00  4.0230871517e+01 
 2.1232959967e+01  2.2350484176e+00  0.0000000000e+00  3.3525726264e+00  1.7880387341e+01 
 2.6820581011e+01  3.5760774682e+01  2.4585532594e+01  4.0230871517e+01  2.5703056802e+01 
 1.1175242088e+01  1.0057717879e+01  1.1175242088e+00  5.5876210440e+00  4.4700968352e+00 
 2.2350484176e+00  0.0000000000e+00  0.0000000000e+00  0.0000000000e+00  0.0000000000e+00 
 0.0000000000e+00  1.1175242088e+00  0.0000000000e+00  1.2292766297e+01  1.0057717879e+01 
 3.3525726264e+00  1.2292766297e+01  1.0057717879e+01  5.5876210440e+00  1.8997911550e+01 
 2.7938105220e+01  1.8997911550e+01  4.4700968352e+00  1.0057717879e+01  1.1175242088e+01 
 1.6762863132e+01  8.9401936704e+00  3.6878298890e+01  3.3525726264e+01  2.2350484176e+01 
 5.5876210440e+00  2.2350484176e+00  0.0000000000e+00  2.2350484176e+00  1.1175242088e+00 
 3.3525726264e+00  1.1175242088e+00  2.2350484176e+00  0.0000000000e+00  1.1175242088e+00 
 1.1175242088e+00  7.8226694616e+00  0.0000000000e+00  2.2350484176e+00  1.1175242088e+00 
 4.4700968352e+00  0.0000000000e+00  5.5876210440e+00  2.7938105220e+01  2.4585532594e+01 
 4.5818492561e+01  7.3756597781e+01  3.3525726264e+01  4.4700968352e+00  5.5876210440e+00 
 2.6820581011e+01  2.1232959967e+01  2.4585532594e+01  2.1232959967e+01  5.5876210440e+00 
 0.0000000000e+00  0.0000000000e+00  0.0000000000e+00  0.0000000000e+00  0.0000000000e+00 
 0.0000000000e+00  0.0000000000e+00  0.0000000000e+00  1.1175242088e+00  2.2350484176e+00 
 3.3525726264e+00  1.3410290506e+01  2.2350484176e+01  5.6993734649e+01  3.2408202055e+01 
 4.0230871517e+01  6.7051452528e+00  3.3525726264e+00  4.4700968352e+00  5.5876210440e+00 
 1.7880387341e+01  4.0230871517e+01  1.5645338923e+01  0.0000000000e+00  0.0000000000e+00 
 0.0000000000e+00  0.0000000000e+00  0.0000000000e+00  0.0000000000e+00  0.0000000000e+00 
 0.0000000000e+00  0.0000000000e+00  0.0000000000e+00  0.0000000000e+00  3.3525726264e+00 
 1.5645338923e+01  5.0288589396e+01  3.7995823099e+01  1.3410290506e+01  5.5876210440e+00 
 0.0000000000e+00  0.0000000000e+00  0.0000000000e+00  0.0000000000e+00  0.0000000000e+00 
 1.3410290506e+01  8.9401936704e+00  2.2350484176e+00  0.0000000000e+00  0.0000000000e+00 
 0.0000000000e+00  0.0000000000e+00  0.0000000000e+00  0.0000000000e+00  0.0000000000e+00 
 0.0000000000e+00  0.0000000000e+00  0.0000000000e+00  2.2350484176e+00  1.4527814714e+01 
 4.5818492561e+01  2.6820581011e+01  3.3525726264e+00  0.0000000000e+00  0.0000000000e+00 
 0.0000000000e+00  0.0000000000e+00  0.0000000000e+00  0.0000000000e+00  0.0000000000e+00 
 2.2350484176e+00  0.0000000000e+00  0.0000000000e+00  0.0000000000e+00  0.0000000000e+00 
 0.0000000000e+00  0.0000000000e+00  0.0000000000e+00  0.0000000000e+00  0.0000000000e+00 
 0.0000000000e+00  0.0000000000e+00  0.0000000000e+00  2.2350484176e+00  1.6762863132e+01 
 1.8997911550e+01  0.0000000000e+00  0.0000000000e+00  0.0000000000e+00  0.0000000000e+00 
 0.0000000000e+00  0.0000000000e+00  0.0000000000e+00  0.0000000000e+00  0.0000000000e+00 
 5.5876210440e+00  0.0000000000e+00  0.0000000000e+00  0.0000000000e+00  0.0000000000e+00 
 0.0000000000e+00  0.0000000000e+00  0.0000000000e+00  0.0000000000e+00  0.0000000000e+00 
 0.0000000000e+00  1.1175242088e+00  0.0000000000e+00  1.3410290506e+01  2.3468008385e+01 
 6.7051452528e+00  0.0000000000e+00  0.0000000000e+00  0.0000000000e+00  0.0000000000e+00 
 0.0000000000e+00  0.0000000000e+00  1.1175242088e+00  6.7051452528e+00  4.4700968352e+00 
 0.0000000000e+00  0.0000000000e+00  0.0000000000e+00  0.0000000000e+00  0.0000000000e+00 
 0.0000000000e+00  0.0000000000e+00  0.0000000000e+00  0.0000000000e+00  0.0000000000e+00 
 0.0000000000e+00  1.1175242088e+00  5.5876210440e+00  8.9401936704e+00  3.3525726264e+00 
 0.0000000000e+00  0.0000000000e+00  0.0000000000e+00  0.0000000000e+00  0.0000000000e+00 
 0.0000000000e+00  0.0000000000e+00  2.2350484176e+01  3.3525726264e+01  5.5876210440e+00 
 0.0000000000e+00  0.0000000000e+00  0.0000000000e+00  0.0000000000e+00  0.0000000000e+00 
 0.0000000000e+00  0.0000000000e+00  0.0000000000e+00  0.0000000000e+00  0.0000000000e+00 
 0.0000000000e+00  1.1175242088e+00  7.8226694616e+00  2.2350484176e+00  0.0000000000e+00 
 0.0000000000e+00  0.0000000000e+00  0.0000000000e+00  0.0000000000e+00  0.0000000000e+00 
 1.0057717879e+01  4.2465919934e+01  5.1406113605e+01  3.5760774682e+01  1.1175242088e+00 
 0.0000000000e+00  0.0000000000e+00  0.0000000000e+00  0.0000000000e+00  0.0000000000e+00 
 0.0000000000e+00  0.0000000000e+00  0.0000000000e+00  0.0000000000e+00  0.0000000000e+00 
 0.0000000000e+00  2.2350484176e+00  6.7051452528e+00  3.3525726264e+00  0.0000000000e+00 
 0.0000000000e+00  0.0000000000e+00  0.0000000000e+00  1.1175242088e+00  6.7051452528e+00 
 1.4527814714e+01  2.2350484176e+01  1.8997911550e+01  3.3525726264e+00  0.0000000000e+00 
 0.0000000000e+00  0.0000000000e+00  0.0000000000e+00  0.0000000000e+00  0.0000000000e+00 
 0.0000000000e+00  0.0000000000e+00  0.0000000000e+00  0.0000000000e+00  1.1175242088e+00 
 3.3525726264e+00  8.9401936704e+00  1.3410290506e+01  5.5876210440e+00  2.2350484176e+00 
 4.4700968352e+00  5.5876210440e+00  2.2350484176e+00  4.4700968352e+00  1.1175242088e+00 
 1.2292766297e+01  1.1175242088e+00  1.1175242088e+00  0.0000000000e+00  0.0000000000e+00 
 0.0000000000e+00  0.0000000000e+00  0.0000000000e+00  0.0000000000e+00  0.0000000000e+00 
 0.0000000000e+00  0.0000000000e+00  0.0000000000e+00  1.1175242088e+00  2.2350484176e+00 
 2.2350484176e+00  3.3525726264e+00  4.4700968352e+00  7.8226694616e+00  2.2350484176e+01 
 3.9113347308e+01  1.3410290506e+01  1.1175242088e+00  0.0000000000e+00  0.0000000000e+00 
 0.0000000000e+00  1.1175242088e+00  1.1175242088e+00  1.1175242088e+00  3.3525726264e+00 
 0.0000000000e+00  7.8226694616e+00  4.4700968352e+00  1.1175242088e+00  0.0000000000e+00 
 0.0000000000e+00  0.0000000000e+00  0.0000000000e+00  0.0000000000e+00  0.0000000000e+00 
 2.2350484176e+00  0.0000000000e+00  2.2350484176e+00  3.0173153638e+01  6.3698879901e+01 
 3.0173153638e+01  2.2350484176e+00  0.0000000000e+00  1.1175242088e+00  0.0000000000e+00 
 0.0000000000e+00  8.9401936704e+00  1.6762863132e+01  2.3468008385e+01  1.3410290506e+01 
 2.0115435758e+01  2.4585532594e+01  8.9401936704e+00  2.2350484176e+00  1.1175242088e+00 
 0.0000000000e+00  0.0000000000e+00  0.0000000000e+00  0.0000000000e+00  0.0000000000e+00 
 0.0000000000e+00  0.0000000000e+00  6.7051452528e+00  2.7938105220e+01  8.9401936704e+00 
 3.3525726264e+00  0.0000000000e+00  0.0000000000e+00  2.2350484176e+00  6.7051452528e+00 
 4.4700968352e+00  3.9113347308e+01  8.2696791451e+01  3.4643250473e+01  6.7051452528e+00 
 7.8226694616e+00  1.6762863132e+01  3.3525726264e+01  5.5876210440e+00  0.0000000000e+00 
 0.0000000000e+00  0.0000000000e+00  0.0000000000e+00  0.0000000000e+00  0.0000000000e+00 
 0.0000000000e+00  0.0000000000e+00  2.2350484176e+00  1.1175242088e+00  0.0000000000e+00 
 2.2350484176e+00  2.2350484176e+00  2.2350484176e+00  4.4700968352e+00  1.5645338923e+01 
 2.2350484176e+01  3.0173153638e+01  2.0115435758e+01  0.0000000000e+00  0.0000000000e+00 
 1.0057717879e+01  1.6762863132e+01  6.7051452528e+00  2.2350484176e+00  0.0000000000e+00 
 0.0000000000e+00  0.0000000000e+00  0.0000000000e+00  0.0000000000e+00  0.0000000000e+00 
 0.0000000000e+00  0.0000000000e+00  1.1175242088e+00  1.1175242088e+00  2.2350484176e+00 
 6.7051452528e+00  1.5645338923e+01  2.1232959967e+01  1.8997911550e+01  1.1175242088e+00 
 0.0000000000e+00  0.0000000000e+00  0.0000000000e+00  0.0000000000e+00  0.0000000000e+00 
 1.1175242088e+00  5.5876210440e+00  1.1175242088e+00  0.0000000000e+00  0.0000000000e+00 
 0.0000000000e+00  0.0000000000e+00  0.0000000000e+00  0.0000000000e+00  0.0000000000e+00 
 0.0000000000e+00  0.0000000000e+00  0.0000000000e+00  3.3525726264e+00  1.7880387341e+01 
 4.8053540978e+01  3.4643250473e+01  4.4700968352e+00  0.0000000000e+00  0.0000000000e+00 
 0.0000000000e+00  0.0000000000e+00  0.0000000000e+00  0.0000000000e+00  1.1175242088e+00 
 1.1175242088e+00  4.4700968352e+00  0.0000000000e+00  0.0000000000e+00  0.0000000000e+00 
 0.0000000000e+00  0.0000000000e+00  0.0000000000e+00  0.0000000000e+00  0.0000000000e+00 
 0.0000000000e+00  0.0000000000e+00  0.0000000000e+00  1.6762863132e+01  8.0461743033e+01 
 2.2350484176e+01  2.2350484176e+00  0.0000000000e+00  0.0000000000e+00  0.0000000000e+00 
 0.0000000000e+00  0.0000000000e+00  0.0000000000e+00  0.0000000000e+00  1.0057717879e+01 
 1.2292766297e+01  4.4700968352e+00  0.0000000000e+00  0.0000000000e+00  0.0000000000e+00 
 0.0000000000e+00  0.0000000000e+00  0.0000000000e+00  0.0000000000e+00  0.0000000000e+00 
 0.0000000000e+00  0.0000000000e+00  7.8226694616e+00  3.9113347308e+01  2.0115435758e+01 
 1.1175242088e+00  0.0000000000e+00  0.0000000000e+00  0.0000000000e+00  0.0000000000e+00 
 0.0000000000e+00  0.0000000000e+00  0.0000000000e+00  1.8997911550e+01  4.9171065187e+01 
 2.4585532594e+01  2.2350484176e+00  0.0000000000e+00  0.0000000000e+00  0.0000000000e+00 
 0.0000000000e+00  0.0000000000e+00  0.0000000000e+00  0.0000000000e+00  0.0000000000e+00 
 0.0000000000e+00  0.0000000000e+00  1.1175242088e+01  3.3525726264e+00  0.0000000000e+00 
 0.0000000000e+00  0.0000000000e+00  0.0000000000e+00  0.0000000000e+00  0.0000000000e+00 
 0.0000000000e+00  7.8226694616e+00  2.1232959967e+01  7.7109170407e+01  4.8053540978e+01 
 1.3410290506e+01  2.2350484176e+00  0.0000000000e+00  0.0000000000e+00  0.0000000000e+00 
 0.0000000000e+00  0.0000000000e+00  0.0000000000e+00  0.0000000000e+00  0.0000000000e+00 
 0.0000000000e+00  1.1175242088e+00  1.1175242088e+00  4.4700968352e+00  0.0000000000e+00 
 0.0000000000e+00  0.0000000000e+00  0.0000000000e+00  0.0000000000e+00  0.0000000000e+00 