Li24 P4 S20 Cl4
 1.00 
 9.939 0.0 0.0 
 0.0 9.9502 0.0 
 0.0 0.0 10.5265 
 Li P S Cl
 24 4 20 4
direct
 0.12160200  0.38294300  0.80200200 
 0.68239500  0.32618000  0.42710500 
 0.99040100  0.81235700  0.69453800 
 0.41375800  0.00276500  0.21913500 
 0.98301000  0.25013800  0.27256100 
 0.72961200  0.12558800  0.06471800 
 0.09179300  0.94117400  0.28532900 
 0.48374300  0.73653900  0.68400700 
 0.80451800  0.00275700  0.40871200 
 0.77502600  0.56624600  0.89908400 
 0.37344900  0.81282600  0.03234900 
 0.83746300  0.45363200  0.17345100 
 0.16013400  0.76224200  0.45311600 
 0.29054300  0.43813500  0.60833900 
 0.48858800  0.08127300  0.77263500 
 0.18760300  0.52017800  0.23347500 
 0.06190600  0.72710900  0.09052500 
 0.18495500  0.10602600  0.54934300 
 0.69933600  0.88264300  0.96888300 
 0.87274000  0.07135200  0.66088600 
 0.33875000  0.18330900  0.98736900 
 0.46238700  0.65570300  0.26401300 
 0.53459100  0.27769300  0.20792800 
 0.73895100  0.62276400  0.53581700 
 0.99680700  0.00224200  0.98510600 
 0.98881600  0.46328800  0.47483800 
 0.48348400  0.01048100  0.48819400 
 0.51642900  0.51373600  0.98234300 
 0.09646900  0.12003000  0.11039800 
 0.09358700  0.58545200  0.60769700 
 0.61978400  0.11563600  0.59660000 
 0.62019700  0.67862300  0.06177700 
 0.85107800  0.91999000  0.13026100 
 0.86695600  0.37188700  0.60470900 
 0.35710000  0.89365400  0.58735500 
 0.39282500  0.42250000  0.12353100 
 0.86278500  0.09758000  0.85712400 
 0.87846300  0.58584700  0.35148800 
 0.37312500  0.15208700  0.36813100 
 0.39596300  0.58071800  0.83264300 
 0.10738300  0.86694800  0.89852900 
 0.12416900  0.34843600  0.38973000 
 0.59525500  0.86663400  0.36835300 
 0.65919700  0.39009800  0.92351300 
 0.23267700  0.76750900  0.24499100 
 0.75851800  0.24652500  0.25782800 
 0.99758300  0.96871000  0.52006800 
 0.49075200  0.02692000  0.99890900 
 0.26062700  0.24215900  0.74595800 
 0.75425300  0.77676200  0.74566700 
 0.51802800  0.55088900  0.46420500 
 0.03307100  0.48501500  0.99926800 
 
 20 20 22 
 0.0000000000e+00  0.0000000000e+00  0.0000000000e+00  0.0000000000e+00  0.0000000000e+00 
 3.9590229619e+00  6.9282901834e+00  0.0000000000e+00  0.0000000000e+00  0.0000000000e+00 
 0.0000000000e+00  0.0000000000e+00  0.0000000000e+00  9.8975574048e-01  1.9795114810e+00 
 9.8975574048e-01  0.0000000000e+00  0.0000000000e+00  0.0000000000e+00  0.0000000000e+00 
 0.0000000000e+00  0.0000000000e+00  0.0000000000e+00  0.0000000000e+00  0.0000000000e+00 
 9.8975574048e-01  2.9692672214e+00  4.9487787024e+00  0.0000000000e+00  0.0000000000e+00 
 0.0000000000e+00  0.0000000000e+00  0.0000000000e+00  9.8975574048e-01  8.9078016643e+00 
 9.8975574048e-01  0.0000000000e+00  0.0000000000e+00  0.0000000000e+00  0.0000000000e+00 
 0.0000000000e+00  0.0000000000e+00  0.0000000000e+00  0.0000000000e+00  0.0000000000e+00 
 9.8975574048e-01  1.0887313145e+01  4.9487787024e+00  0.0000000000e+00  0.0000000000e+00 
 0.0000000000e+00  0.0000000000e+00  0.0000000000e+00  4.9487787024e+00  2.8702916474e+01 
 9.8975574048e+00  9.8975574048e-01  0.0000000000e+00  0.0000000000e+00  0.0000000000e+00 
 0.0000000000e+00  0.0000000000e+00  0.0000000000e+00  0.0000000000e+00  0.0000000000e+00 
 4.9487787024e+00  2.1774626291e+01  1.1877068886e+01  1.9795114810e+00  0.0000000000e+00 
 0.0000000000e+00  0.0000000000e+00  1.9795114810e+00  3.5631206657e+01  4.0579985360e+01 
 8.9078016643e+00  1.9795114810e+00  0.0000000000e+00  0.0000000000e+00  0.0000000000e+00 
 0.0000000000e+00  0.0000000000e+00  0.0000000000e+00  0.0000000000e+00  0.0000000000e+00 
 5.9385344429e+00  3.0682427955e+01  2.2764382031e+01  6.9282901834e+00  2.9692672214e+00 
 9.8975574048e-01  1.9795114810e+00  1.5836091848e+01  6.7303390353e+01  6.6313634612e+01 
 1.4846336107e+01  9.8975574048e-01  0.0000000000e+00  9.8975574048e-01  0.0000000000e+00 
 1.9795114810e+00  0.0000000000e+00  0.0000000000e+00  0.0000000000e+00  9.8975574048e-01 
 9.8975574048e-01  4.9487787024e+00  9.8975574048e-01  1.9795114810e+00  9.8975574048e-01 
 0.0000000000e+00  5.9385344429e+00  7.9180459238e+00  2.1774626291e+01  1.6825847588e+01 
 1.5836091848e+01  2.0784870550e+01  1.8805359069e+01  1.0887313145e+01  5.9385344429e+00 
 9.8975574048e-01  3.9590229619e+00  3.9590229619e+00  1.0887313145e+01  6.9282901834e+00 
 0.0000000000e+00  0.0000000000e+00  0.0000000000e+00  0.0000000000e+00  0.0000000000e+00 
 0.0000000000e+00  0.0000000000e+00  9.8975574048e-01  9.8975574048e-01  2.9692672214e+00 
 1.9795114810e+01  3.7610718138e+01  3.6620962398e+01  1.4846336107e+01  7.9180459238e+00 
 0.0000000000e+00  0.0000000000e+00  9.8975574048e-01  6.9282901834e+00  9.8975574048e+00 
 0.0000000000e+00  0.0000000000e+00  0.0000000000e+00  0.0000000000e+00  0.0000000000e+00 
 0.0000000000e+00  0.0000000000e+00  0.0000000000e+00  9.8975574048e-01  1.9795114810e+00 
 1.3856580367e+01  3.6620962398e+01  8.9078016643e+00  4.9487787024e+00  0.0000000000e+00 
 0.0000000000e+00  0.0000000000e+00  9.8975574048e-01  9.8975574048e-01  7.9180459238e+00 
 0.0000000000e+00  0.0000000000e+00  0.0000000000e+00  0.0000000000e+00  0.0000000000e+00 
 0.0000000000e+00  0.0000000000e+00  0.0000000000e+00  0.0000000000e+00  0.0000000000e+00 
 1.4846336107e+01  5.9385344429e+00  1.9795114810e+00  0.0000000000e+00  0.0000000000e+00 
 0.0000000000e+00  0.0000000000e+00  0.0000000000e+00  0.0000000000e+00  1.9795114810e+00 
 0.0000000000e+00  0.0000000000e+00  0.0000000000e+00  0.0000000000e+00  0.0000000000e+00 
 0.0000000000e+00  0.0000000000e+00  0.0000000000e+00  0.0000000000e+00  0.0000000000e+00 
 1.1877068886e+01  1.9795114810e+00  0.0000000000e+00  0.0000000000e+00  0.0000000000e+00 
 0.0000000000e+00  0.0000000000e+00  0.0000000000e+00  9.8975574048e-01  1.9795114810e+00 
 0.0000000000e+00  0.0000000000e+00  0.0000000000e+00  0.0000000000e+00  0.0000000000e+00 
 0.0000000000e+00  0.0000000000e+00  0.0000000000e+00  0.0000000000e+00  0.0000000000e+00 
 4.9487787024e+00  0.0000000000e+00  0.0000000000e+00  0.0000000000e+00  0.0000000000e+00 
 0.0000000000e+00  0.0000000000e+00  0.0000000000e+00  0.0000000000e+00  4.9487787024e+00 
 9.8975574048e-01  0.0000000000e+00  0.0000000000e+00  0.0000000000e+00  0.0000000000e+00 
 0.0000000000e+00  0.0000000000e+00  0.0000000000e+00  0.0000000000e+00  0.0000000000e+00 
 0.0000000000e+00  0.0000000000e+00  0.0000000000e+00  0.0000000000e+00  0.0000000000e+00 
 0.0000000000e+00  0.0000000000e+00  0.0000000000e+00  1.9795114810e+00  1.1877068886e+01 
 2.9692672214e+00  9.8975574048e-01  0.0000000000e+00  0.0000000000e+00  0.0000000000e+00 
 0.0000000000e+00  0.0000000000e+00  0.0000000000e+00  0.0000000000e+00  0.0000000000e+00 
 0.0000000000e+00  9.8975574048e-01  2.9692672214e+00  0.0000000000e+00  0.0000000000e+00 
 0.0000000000e+00  0.0000000000e+00  9.8975574048e-01  1.2866824626e+01  1.6825847588e+01 
 4.9487787024e+00  0.0000000000e+00  0.0000000000e+00  0.0000000000e+00  0.0000000000e+00 
 0.0000000000e+00  0.0000000000e+00  0.0000000000e+00  0.0000000000e+00  9.8975574048e-01 
 9.8975574048e-01  5.9385344429e+00  3.9590229619e+00  9.8975574048e-01  9.8975574048e-01 
 4.9487787024e+00  5.9385344429e+00  1.8805359069e+01  2.8702916474e+01  2.4743893512e+01 
 7.9180459238e+00  6.9282901834e+00  3.9590229619e+00  9.8975574048e-01  9.8975574048e-01 
 0.0000000000e+00  0.0000000000e+00  0.0000000000e+00  0.0000000000e+00  0.0000000000e+00 
 1.9795114810e+00  1.9795114810e+00  2.9692672214e+00  0.0000000000e+00  1.9795114810e+00 
 1.9795114810e+00  1.0887313145e+01  1.1877068886e+01  1.5836091848e+01  2.2764382031e+01 
 2.3754137772e+01  2.9692672214e+01  1.0887313145e+01  9.8975574048e+00  7.9180459238e+00 
 0.0000000000e+00  0.0000000000e+00  1.9795114810e+00  4.9487787024e+00  3.9590229619e+00 
 1.9795114810e+00  9.8975574048e-01  0.0000000000e+00  0.0000000000e+00  0.0000000000e+00 
 0.0000000000e+00  0.0000000000e+00  0.0000000000e+00  1.9795114810e+00  1.9795114810e+00 
 2.5733649252e+01  1.0194484127e+02  5.2457054245e+01  4.9487787024e+00  2.9692672214e+00 
 6.9282901834e+00  4.9487787024e+00  1.6825847588e+01  3.3651695176e+01  3.0682427955e+01 
 9.8975574048e-01  0.0000000000e+00  0.0000000000e+00  0.0000000000e+00  0.0000000000e+00 
 0.0000000000e+00  0.0000000000e+00  0.0000000000e+00  0.0000000000e+00  9.8975574048e-01 
 2.3754137772e+01  7.8190703498e+01  2.0784870550e+01  0.0000000000e+00  0.0000000000e+00 
 0.0000000000e+00  9.8975574048e-01  3.9590229619e+00  2.2764382031e+01  2.6723404993e+01 
 0.0000000000e+00  0.0000000000e+00  0.0000000000e+00  0.0000000000e+00  0.0000000000e+00 
 0.0000000000e+00  0.0000000000e+00  0.0000000000e+00  0.0000000000e+00  0.0000000000e+00 
 1.5836091848e+01  2.1774626291e+01  3.9590229619e+00  0.0000000000e+00  0.0000000000e+00 
 0.0000000000e+00  0.0000000000e+00  0.0000000000e+00  5.9385344429e+00  5.9385344429e+00 
 0.0000000000e+00  0.0000000000e+00  0.0000000000e+00  0.0000000000e+00  0.0000000000e+00 
 0.0000000000e+00  0.0000000000e+00  0.0000000000e+00  0.0000000000e+00  0.0000000000e+00 
 7.9180459238e+00  9.8975574048e-01  0.0000000000e+00  0.0000000000e+00  0.0000000000e+00 
 0.0000000000e+00  0.0000000000e+00  0.0000000000e+00  9.8975574048e-01  3.9590229619e+00 
 9.8975574048e-01  0.0000000000e+00  0.0000000000e+00  0.0000000000e+00  0.0000000000e+00 
 0.0000000000e+00  0.0000000000e+00  0.0000000000e+00  0.0000000000e+00  0.0000000000e+00 
 5.9385344429e+00  1.5836091848e+01  2.9692672214e+00  0.0000000000e+00  0.0000000000e+00 
 0.0000000000e+00  0.0000000000e+00  0.0000000000e+00  0.0000000000e+00  1.7815603329e+01 
 9.8975574048e+00  0.0000000000e+00  0.0000000000e+00  0.0000000000e+00  0.0000000000e+00 
 0.0000000000e+00  0.0000000000e+00  0.0000000000e+00  0.0000000000e+00  0.0000000000e+00 
 1.9795114810e+00  5.9385344429e+00  9.8975574048e-01  0.0000000000e+00  0.0000000000e+00 
 0.0000000000e+00  0.0000000000e+00  0.0000000000e+00  5.9385344429e+00  6.2354611650e+01 
 2.7713160733e+01  1.9795114810e+00  0.0000000000e+00  0.0000000000e+00  0.0000000000e+00 
 0.0000000000e+00  0.0000000000e+00  0.0000000000e+00  0.0000000000e+00  0.0000000000e+00 
 0.0000000000e+00  4.9487787024e+00  1.0887313145e+01  9.8975574048e-01  0.0000000000e+00 
 0.0000000000e+00  0.0000000000e+00  1.9795114810e+00  1.9795114810e+01  5.5426321467e+01 
 3.2661939436e+01  0.0000000000e+00  0.0000000000e+00  0.0000000000e+00  0.0000000000e+00 
 0.0000000000e+00  0.0000000000e+00  0.0000000000e+00  0.0000000000e+00  0.0000000000e+00 
 1.9795114810e+00  2.9692672214e+00  1.8805359069e+01  4.9487787024e+00  2.9692672214e+00 
 9.8975574048e-01  9.8975574048e-01  8.9078016643e+00  7.6211192017e+01  6.6313634612e+01 
 2.7713160733e+01  9.8975574048e-01  0.0000000000e+00  0.0000000000e+00  0.0000000000e+00 
 0.0000000000e+00  0.0000000000e+00  0.0000000000e+00  0.0000000000e+00  0.0000000000e+00 
 1.9795114810e+00  1.0887313145e+01  1.2866824626e+01  4.9487787024e+00  3.9590229619e+00 
 9.8975574048e+00  1.6825847588e+01  4.4539008322e+01  7.3241924796e+01  4.6518519803e+01 
 1.8805359069e+01  5.9385344429e+00  4.9487787024e+00  4.9487787024e+00  3.9590229619e+00 
 2.9692672214e+00  0.0000000000e+00  0.0000000000e+00  0.0000000000e+00  0.0000000000e+00 
 0.0000000000e+00  0.0000000000e+00  0.0000000000e+00  1.9795114810e+00  2.9692672214e+00 
 9.8975574048e-01  3.2661939436e+01  4.5528764062e+01  3.7610718138e+01  1.2866824626e+01 
 1.8805359069e+01  1.8805359069e+01  2.9692672214e+01  5.4436565726e+01  2.9692672214e+01 
 4.9487787024e+00  5.9385344429e+00  4.9487787024e+00  2.9692672214e+00  0.0000000000e+00 
 0.0000000000e+00  0.0000000000e+00  0.0000000000e+00  0.0000000000e+00  0.0000000000e+00 
 0.0000000000e+00  9.8975574048e-01  3.9590229619e+00  6.9282901834e+00  3.9590229619e+00 
 2.5733649252e+01  5.6416077207e+01  7.7200947757e+01  6.5323878872e+01  1.7815603329e+01 
 9.8975574048e-01  0.0000000000e+00  1.9795114810e+00  7.9180459238e+00  0.0000000000e+00 
 0.0000000000e+00  0.0000000000e+00  0.0000000000e+00  0.0000000000e+00  0.0000000000e+00 
 0.0000000000e+00  0.0000000000e+00  0.0000000000e+00  9.8975574048e-01  3.9590229619e+00 
 2.9692672214e+01  7.1262413315e+01  4.5528764062e+01  1.8805359069e+01  0.0000000000e+00 
 0.0000000000e+00  0.0000000000e+00  0.0000000000e+00  9.8975574048e-01  1.9795114810e+00 
 0.0000000000e+00  0.0000000000e+00  0.0000000000e+00  0.0000000000e+00  0.0000000000e+00 
 0.0000000000e+00  0.0000000000e+00  0.0000000000e+00  0.0000000000e+00  4.9487787024e+00 
 5.3446809986e+01  5.0477542765e+01  9.8975574048e+00  0.0000000000e+00  0.0000000000e+00 
 0.0000000000e+00  0.0000000000e+00  9.8975574048e-01  9.8975574048e-01  3.9590229619e+00 
 0.0000000000e+00  0.0000000000e+00  0.0000000000e+00  0.0000000000e+00  0.0000000000e+00 
 0.0000000000e+00  0.0000000000e+00  0.0000000000e+00  0.0000000000e+00  1.9795114810e+00 
 4.1569741100e+01  2.7713160733e+01  2.9692672214e+00  0.0000000000e+00  0.0000000000e+00 
 0.0000000000e+00  0.0000000000e+00  0.0000000000e+00  0.0000000000e+00  9.8975574048e-01 
 2.9692672214e+00  0.0000000000e+00  0.0000000000e+00  0.0000000000e+00  0.0000000000e+00 
 0.0000000000e+00  0.0000000000e+00  0.0000000000e+00  0.0000000000e+00  0.0000000000e+00 
 1.1877068886e+01  0.0000000000e+00  0.0000000000e+00  0.0000000000e+00  0.0000000000e+00 
 0.0000000000e+00  0.0000000000e+00  0.0000000000e+00  0.0000000000e+00  1.7815603329e+01 
 1.6825847588e+01  1.9795114810e+00  0.0000000000e+00  0.0000000000e+00  0.0000000000e+00 
 0.0000000000e+00  0.0000000000e+00  0.0000000000e+00  0.0000000000e+00  0.0000000000e+00 
 9.8975574048e-01  2.9692672214e+00  0.0000000000e+00  0.0000000000e+00  0.0000000000e+00 
 0.0000000000e+00  0.0000000000e+00  0.0000000000e+00  1.0887313145e+01  4.4539008322e+01 
 2.3754137772e+01  2.9692672214e+00  0.0000000000e+00  0.0000000000e+00  0.0000000000e+00 
 0.0000000000e+00  0.0000000000e+00  0.0000000000e+00  0.0000000000e+00  0.0000000000e+00 
 0.0000000000e+00  0.0000000000e+00  0.0000000000e+00  0.0000000000e+00  0.0000000000e+00 
 9.8975574048e-01  8.9078016643e+00  1.2866824626e+01  2.9692672214e+01  3.4641450917e+01 
 1.3856580367e+01  1.9795114810e+00  9.8975574048e-01  9.8975574048e-01  0.0000000000e+00 
 0.0000000000e+00  0.0000000000e+00  0.0000000000e+00  0.0000000000e+00  0.0000000000e+00 
 0.0000000000e+00  0.0000000000e+00  0.0000000000e+00  9.8975574048e-01  0.0000000000e+00 
 2.0784870550e+01  5.6416077207e+01  6.1364855910e+01  6.2354611650e+01  3.2661939436e+01 
 1.0887313145e+01  1.9795114810e+00  4.9487787024e+00  4.9487787024e+00  9.8975574048e-01 
 0.0000000000e+00  0.0000000000e+00  0.0000000000e+00  0.0000000000e+00  0.0000000000e+00 
 0.0000000000e+00  9.8975574048e-01  0.0000000000e+00  0.0000000000e+00  3.9590229619e+00 
 1.1877068886e+01  3.6620962398e+01  4.7508275543e+01  3.1672183695e+01  1.5836091848e+01 
 1.5836091848e+01  2.3754137772e+01  4.8498031284e+01  4.8498031284e+01  2.2764382031e+01 
 1.9795114810e+00  2.9692672214e+00  0.0000000000e+00  8.9078016643e+00  9.8975574048e-01 
 0.0000000000e+00  0.0000000000e+00  0.0000000000e+00  0.0000000000e+00  0.0000000000e+00 
 0.0000000000e+00  3.9590229619e+00  9.8975574048e-01  7.9180459238e+00  5.9385344429e+00 
 3.4641450917e+01  6.8293146093e+01  7.2252169055e+01  4.1569741100e+01  1.2866824626e+01 
 6.9282901834e+00  1.9795114810e+00  3.9590229619e+00  2.8702916474e+01  6.9282901834e+00 
 9.8975574048e-01  0.0000000000e+00  0.0000000000e+00  0.0000000000e+00  0.0000000000e+00 
 0.0000000000e+00  0.0000000000e+00  0.0000000000e+00  0.0000000000e+00  1.9795114810e+00 
 4.5528764062e+01  7.5221436277e+01  3.6620962398e+01  6.9282901834e+00  9.8975574048e-01 
 9.8975574048e-01  0.0000000000e+00  7.9180459238e+00  3.3651695176e+01  1.0887313145e+01 
 0.0000000000e+00  0.0000000000e+00  0.0000000000e+00  0.0000000000e+00  0.0000000000e+00 
 0.0000000000e+00  0.0000000000e+00  0.0000000000e+00  0.0000000000e+00  2.9692672214e+00 
 4.7508275543e+01  6.6313634612e+01  1.1877068886e+01  0.0000000000e+00  0.0000000000e+00 
 0.0000000000e+00  0.0000000000e+00  9.8975574048e-01  8.9078016643e+00  7.9180459238e+00 
 9.8975574048e-01  0.0000000000e+00  0.0000000000e+00  0.0000000000e+00  0.0000000000e+00 
 0.0000000000e+00  0.0000000000e+00  0.0000000000e+00  0.0000000000e+00  1.9795114810e+00 
 3.3651695176e+01  2.0784870550e+01  0.0000000000e+00  0.0000000000e+00  0.0000000000e+00 
 0.0000000000e+00  0.0000000000e+00  0.0000000000e+00  0.0000000000e+00  9.8975574048e-01 
 9.8975574048e-01  0.0000000000e+00  0.0000000000e+00  0.0000000000e+00  0.0000000000e+00 
 0.0000000000e+00  0.0000000000e+00  0.0000000000e+00  0.0000000000e+00  0.0000000000e+00 
 7.9180459238e+00  1.6825847588e+01  2.9692672214e+00  0.0000000000e+00  0.0000000000e+00 
 0.0000000000e+00  0.0000000000e+00  0.0000000000e+00  5.9385344429e+00  2.3754137772e+01 
 7.9180459238e+00  9.8975574048e-01  0.0000000000e+00  0.0000000000e+00  0.0000000000e+00 
 0.0000000000e+00  0.0000000000e+00  0.0000000000e+00  0.0000000000e+00  0.0000000000e+00 
 9.8975574048e-01  6.9282901834e+00  1.9795114810e+00  0.0000000000e+00  0.0000000000e+00 
 0.0000000000e+00  0.0000000000e+00  0.0000000000e+00  1.9795114810e+01  5.0477542765e+01 
 4.0579985360e+01  1.9795114810e+00  0.0000000000e+00  0.0000000000e+00  0.0000000000e+00 
 0.0000000000e+00  0.0000000000e+00  0.0000000000e+00  0.0000000000e+00  0.0000000000e+00 
 0.0000000000e+00  1.9795114810e+00  7.9180459238e+00  2.9692672214e+00  0.0000000000e+00 
 9.8975574048e-01  9.8975574048e-01  6.9282901834e+00  2.2764382031e+01  2.8702916474e+01 
 2.2764382031e+01  3.9590229619e+00  9.8975574048e-01  0.0000000000e+00  0.0000000000e+00 
 0.0000000000e+00  0.0000000000e+00  0.0000000000e+00  0.0000000000e+00  0.0000000000e+00 
 9.8975574048e-01  2.9692672214e+00  1.7815603329e+01  8.9078016643e+00  1.9795114810e+00 
 4.9487787024e+00  9.8975574048e+00  2.1774626291e+01  1.3856580367e+01  1.4846336107e+01 
 6.9282901834e+00  2.9692672214e+00  8.9078016643e+00  0.0000000000e+00  0.0000000000e+00 
 0.0000000000e+00  0.0000000000e+00  0.0000000000e+00  0.0000000000e+00  0.0000000000e+00 
 0.0000000000e+00  0.0000000000e+00  3.9590229619e+00  5.9385344429e+00  3.9590229619e+00 
 1.9795114810e+01  3.5631206657e+01  3.0682427955e+01  3.9590229619e+00  3.9590229619e+00 
 0.0000000000e+00  9.8975574048e-01  4.9487787024e+00  7.9180459238e+00  1.9795114810e+00 
 4.9487787024e+00  0.0000000000e+00  0.0000000000e+00  0.0000000000e+00  0.0000000000e+00 
 0.0000000000e+00  0.0000000000e+00  0.0000000000e+00  0.0000000000e+00  0.0000000000e+00 
 9.8975574048e+00  4.4539008322e+01  1.4846336107e+01  2.9692672214e+00  0.0000000000e+00 
 0.0000000000e+00  1.9795114810e+00  5.9385344429e+00  2.3754137772e+01  2.3754137772e+01 
 1.4846336107e+01  9.8975574048e-01  1.9795114810e+00  0.0000000000e+00  0.0000000000e+00 
 0.0000000000e+00  0.0000000000e+00  0.0000000000e+00  0.0000000000e+00  0.0000000000e+00 
 0.0000000000e+00  2.9692672214e+00  5.9385344429e+00  2.9692672214e+00  0.0000000000e+00 
 0.0000000000e+00  3.9590229619e+00  1.4846336107e+01  5.7405832948e+01  4.8498031284e+01 
 4.9487787024e+00  0.0000000000e+00  3.9590229619e+00  1.9795114810e+00  0.0000000000e+00 
 0.0000000000e+00  0.0000000000e+00  0.0000000000e+00  0.0000000000e+00  0.0000000000e+00 
 0.0000000000e+00  0.0000000000e+00  9.8975574048e-01  1.9795114810e+00  0.0000000000e+00 
 6.9282901834e+00  1.0887313145e+01  1.8805359069e+01  2.0784870550e+01  1.1877068886e+01 
 0.0000000000e+00  0.0000000000e+00  3.9590229619e+00  1.9795114810e+00  0.0000000000e+00 
 0.0000000000e+00  0.0000000000e+00  0.0000000000e+00  0.0000000000e+00  0.0000000000e+00 
 0.0000000000e+00  0.0000000000e+00  0.0000000000e+00  2.9692672214e+00  9.8975574048e+00 
 4.0579985360e+01  4.0579985360e+01  1.4846336107e+01  1.9795114810e+00  0.0000000000e+00 
 0.0000000000e+00  0.0000000000e+00  9.8975574048e-01  4.9487787024e+00  2.9692672214e+00 
 9.8975574048e-01  0.0000000000e+00  0.0000000000e+00  0.0000000000e+00  0.0000000000e+00 
 0.0000000000e+00  0.0000000000e+00  0.0000000000e+00  0.0000000000e+00  5.9385344429e+00 
 3.5631206657e+01  4.5528764062e+01  1.9795114810e+00  0.0000000000e+00  0.0000000000e+00 
 0.0000000000e+00  0.0000000000e+00  0.0000000000e+00  5.9385344429e+00  6.9282901834e+00 
 6.9282901834e+00  0.0000000000e+00  0.0000000000e+00  0.0000000000e+00  0.0000000000e+00 
 0.0000000000e+00  0.0000000000e+00  0.0000000000e+00  0.0000000000e+00  0.0000000000e+00 
 2.9692672214e+00  7.9180459238e+00  9.8975574048e-01  0.0000000000e+00  0.0000000000e+00 
 0.0000000000e+00  0.0000000000e+00  9.8975574048e-01  4.9487787024e+00  6.3344367391e+01 
 4.6518519803e+01  3.9590229619e+00  0.0000000000e+00  0.0000000000e+00  0.0000000000e+00 
 0.0000000000e+00  0.0000000000e+00  0.0000000000e+00  0.0000000000e+00  0.0000000000e+00 
 0.0000000000e+00  9.8975574048e-01  0.0000000000e+00  0.0000000000e+00  0.0000000000e+00 
 0.0000000000e+00  9.8975574048e-01  1.9795114810e+00  2.0784870550e+01  3.9590229619e+01 
 3.1672183695e+01  7.9180459238e+00  9.8975574048e-01  1.9795114810e+00  0.0000000000e+00 
 0.0000000000e+00  0.0000000000e+00  0.0000000000e+00  0.0000000000e+00  0.0000000000e+00 
 0.0000000000e+00  0.0000000000e+00  0.0000000000e+00  0.0000000000e+00  0.0000000000e+00 
 5.9385344429e+00  1.4846336107e+01  1.5836091848e+01  1.7815603329e+01  7.9180459238e+00 
 1.9795114810e+00  9.8975574048e-01  0.0000000000e+00  0.0000000000e+00  0.0000000000e+00 
 0.0000000000e+00  0.0000000000e+00  0.0000000000e+00  0.0000000000e+00  0.0000000000e+00 
 0.0000000000e+00  0.0000000000e+00  0.0000000000e+00  2.9692672214e+00  0.0000000000e+00 
 1.9795114810e+01  5.3446809986e+01  4.8498031284e+01  4.9487787024e+00  9.8975574048e-01 
 0.0000000000e+00  9.8975574048e-01  0.0000000000e+00  6.9282901834e+00  1.9795114810e+00 
 0.0000000000e+00  0.0000000000e+00  0.0000000000e+00  0.0000000000e+00  0.0000000000e+00 
 0.0000000000e+00  0.0000000000e+00  0.0000000000e+00  9.8975574048e-01  9.8975574048e-01 
 9.8975574048e+00  3.4641450917e+01  3.2661939436e+01  9.8975574048e+00  0.0000000000e+00 
 0.0000000000e+00  0.0000000000e+00  1.0887313145e+01  3.5631206657e+01  3.7610718138e+01 
 6.9282901834e+00  0.0000000000e+00  0.0000000000e+00  0.0000000000e+00  0.0000000000e+00 
 0.0000000000e+00  0.0000000000e+00  0.0000000000e+00  0.0000000000e+00  0.0000000000e+00 
 0.0000000000e+00  2.9692672214e+00  1.9795114810e+00  5.9385344429e+00  9.8975574048e-01 
 9.8975574048e-01  2.9692672214e+00  9.8975574048e+00  3.2661939436e+01  4.2559496841e+01 
 1.0887313145e+01  0.0000000000e+00  9.8975574048e-01  7.9180459238e+00  0.0000000000e+00 
 0.0000000000e+00  0.0000000000e+00  0.0000000000e+00  0.0000000000e+00  0.0000000000e+00 
 0.0000000000e+00  0.0000000000e+00  9.8975574048e-01  1.9795114810e+00  3.9590229619e+00 
 6.9282901834e+00  8.9078016643e+00  1.1877068886e+01  1.5836091848e+01  3.9590229619e+00 
 9.8975574048e-01  6.9282901834e+00  1.0887313145e+01  7.9180459238e+00  0.0000000000e+00 
 0.0000000000e+00  0.0000000000e+00  0.0000000000e+00  0.0000000000e+00  0.0000000000e+00 
 0.0000000000e+00  0.0000000000e+00  0.0000000000e+00  0.0000000000e+00  8.9078016643e+00 
 2.2764382031e+01  4.1569741100e+01  1.3856580367e+01  7.9180459238e+00  0.0000000000e+00 
 0.0000000000e+00  0.0000000000e+00  2.9692672214e+00  5.9385344429e+00  0.0000000000e+00 
 0.0000000000e+00  0.0000000000e+00  0.0000000000e+00  0.0000000000e+00  0.0000000000e+00 
 0.0000000000e+00  0.0000000000e+00  0.0000000000e+00  0.0000000000e+00  2.9692672214e+00 
 3.7610718138e+01  5.3446809986e+01  1.9795114810e+00  0.0000000000e+00  0.0000000000e+00 
 0.0000000000e+00  0.0000000000e+00  0.0000000000e+00  5.9385344429e+00  4.9487787024e+00 
 0.0000000000e+00  0.0000000000e+00  0.0000000000e+00  0.0000000000e+00  0.0000000000e+00 
 0.0000000000e+00  0.0000000000e+00  0.0000000000e+00  0.0000000000e+00  0.0000000000e+00 
 1.8805359069e+01  5.9385344429e+01  3.3651695176e+01  8.9078016643e+00  0.0000000000e+00 
 0.0000000000e+00  0.0000000000e+00  3.9590229619e+00  5.3446809986e+01  7.1262413315e+01 
 1.0887313145e+01  0.0000000000e+00  0.0000000000e+00  0.0000000000e+00  0.0000000000e+00 
 0.0000000000e+00  0.0000000000e+00  0.0000000000e+00  0.0000000000e+00  0.0000000000e+00 
 1.9795114810e+00  1.0887313145e+01  1.2866824626e+01  6.9282901834e+00  2.9692672214e+00 
 0.0000000000e+00  9.8975574048e-01  3.9590229619e+00  4.1569741100e+01  6.0375100169e+01 
 2.5733649252e+01  2.9692672214e+00  0.0000000000e+00  0.0000000000e+00  0.0000000000e+00 
 0.0000000000e+00  0.0000000000e+00  0.0000000000e+00  0.0000000000e+00  0.0000000000e+00 
 1.9795114810e+00  3.9590229619e+00  3.9590229619e+00  2.9692672214e+00  4.9487787024e+00 
 2.9692672214e+00  3.9590229619e+00  1.2866824626e+01  1.3856580367e+01  6.9282901834e+00 
 2.9692672214e+00  2.9692672214e+00  2.9692672214e+00  0.0000000000e+00  0.0000000000e+00 
 0.0000000000e+00  0.0000000000e+00  0.0000000000e+00  0.0000000000e+00  0.0000000000e+00 
 9.8975574048e-01  3.9590229619e+00  9.8975574048e+00  6.9282901834e+00  1.5836091848e+01 
 5.0477542765e+01  2.3754137772e+01  8.9078016643e+00  0.0000000000e+00  9.8975574048e-01 
 0.0000000000e+00  0.0000000000e+00  0.0000000000e+00  0.0000000000e+00  0.0000000000e+00 
 0.0000000000e+00  0.0000000000e+00  0.0000000000e+00  0.0000000000e+00  0.0000000000e+00 
 0.0000000000e+00  0.0000000000e+00  0.0000000000e+00  5.9385344429e+00  2.2764382031e+01 
 9.1057528124e+01  6.7303390353e+01  6.9282901834e+00  0.0000000000e+00  0.0000000000e+00 
 0.0000000000e+00  0.0000000000e+00  0.0000000000e+00  1.9795114810e+00  9.8975574048e-01 
 5.9385344429e+00  0.0000000000e+00  0.0000000000e+00  0.0000000000e+00  0.0000000000e+00 
 0.0000000000e+00  0.0000000000e+00  0.0000000000e+00  0.0000000000e+00  1.9795114810e+00 
 2.5733649252e+01  1.8805359069e+01  2.9692672214e+00  0.0000000000e+00  0.0000000000e+00 
 0.0000000000e+00  0.0000000000e+00  0.0000000000e+00  6.9282901834e+00  2.3754137772e+01 
 2.6723404993e+01  9.8975574048e-01  0.0000000000e+00  0.0000000000e+00  0.0000000000e+00 
 0.0000000000e+00  0.0000000000e+00  0.0000000000e+00  0.0000000000e+00  0.0000000000e+00 
 3.9590229619e+00  8.9078016643e+00  2.9692672214e+00  0.0000000000e+00  0.0000000000e+00 
 0.0000000000e+00  0.0000000000e+00  9.8975574048e-01  1.4846336107e+01  4.9487787024e+01 
 9.8975574048e+00  1.9795114810e+00  4.9487787024e+00  3.9590229619e+00  0.0000000000e+00 
 0.0000000000e+00  0.0000000000e+00  0.0000000000e+00  0.0000000000e+00  0.0000000000e+00 
 0.0000000000e+00  9.8975574048e-01  9.8975574048e-01  4.9487787024e+00  0.0000000000e+00 
 0.0000000000e+00  0.0000000000e+00  2.9692672214e+00  1.5836091848e+01  2.1774626291e+01 
 0.0000000000e+00  0.0000000000e+00  3.9590229619e+00  7.9180459238e+00  0.0000000000e+00 
 0.0000000000e+00  0.0000000000e+00  0.0000000000e+00  0.0000000000e+00  0.0000000000e+00 
 0.0000000000e+00  0.0000000000e+00  0.0000000000e+00  0.0000000000e+00  1.9795114810e+00 
 4.9487787024e+00  1.5836091848e+01  9.8975574048e+00  1.3856580367e+01  2.9692672214e+00 
 0.0000000000e+00  0.0000000000e+00  1.9795114810e+00  8.9078016643e+00  8.9078016643e+00 
 0.0000000000e+00  0.0000000000e+00  0.0000000000e+00  0.0000000000e+00  0.0000000000e+00 
 0.0000000000e+00  0.0000000000e+00  0.0000000000e+00  2.9692672214e+00  2.9692672214e+00 
 2.0784870550e+01  7.1262413315e+01  1.8805359069e+01  3.9590229619e+00  0.0000000000e+00 
 0.0000000000e+00  0.0000000000e+00  1.9795114810e+00  2.0784870550e+01  5.0477542765e+01 
 1.2866824626e+01  0.0000000000e+00  0.0000000000e+00  0.0000000000e+00  0.0000000000e+00 
 0.0000000000e+00  0.0000000000e+00  0.0000000000e+00  0.0000000000e+00  0.0000000000e+00 
 1.2866824626e+01  2.1774626291e+01  6.9282901834e+00  0.0000000000e+00  0.0000000000e+00 
 0.0000000000e+00  0.0000000000e+00  6.9282901834e+00  2.3754137772e+01  7.3241924796e+01 
 2.7713160733e+01  1.9795114810e+00  0.0000000000e+00  0.0000000000e+00  0.0000000000e+00 
 0.0000000000e+00  0.0000000000e+00  0.0000000000e+00  0.0000000000e+00  0.0000000000e+00 
 1.9795114810e+00  5.9385344429e+00  2.9692672214e+00  0.0000000000e+00  0.0000000000e+00 
 0.0000000000e+00  9.8975574048e+00  1.2866824626e+01  1.8805359069e+01  1.8805359069e+01 
 5.9385344429e+00  4.9487787024e+00  3.9590229619e+00  0.0000000000e+00  0.0000000000e+00 
 0.0000000000e+00  0.0000000000e+00  0.0000000000e+00  0.0000000000e+00  0.0000000000e+00 
 0.0000000000e+00  0.0000000000e+00  3.9590229619e+00  0.0000000000e+00  9.8975574048e-01 
 2.1774626291e+01  4.8498031284e+01  1.1877068886e+01  1.9795114810e+00  9.8975574048e-01 
 0.0000000000e+00  0.0000000000e+00  3.9590229619e+00  2.9692672214e+00  9.8975574048e-01 
 0.0000000000e+00  0.0000000000e+00  0.0000000000e+00  0.0000000000e+00  0.0000000000e+00 
 0.0000000000e+00  0.0000000000e+00  2.9692672214e+00  0.0000000000e+00  3.9590229619e+00 
 3.8600473879e+01  4.8498031284e+01  1.1877068886e+01  0.0000000000e+00  0.0000000000e+00 
 0.0000000000e+00  0.0000000000e+00  9.8975574048e-01  9.8975574048e-01  3.9590229619e+00 
 0.0000000000e+00  0.0000000000e+00  0.0000000000e+00  0.0000000000e+00  0.0000000000e+00 
 0.0000000000e+00  0.0000000000e+00  0.0000000000e+00  0.0000000000e+00  7.9180459238e+00 
 1.0887313145e+01  1.3856580367e+01  9.8975574048e-01  9.8975574048e-01  0.0000000000e+00 
 0.0000000000e+00  0.0000000000e+00  0.0000000000e+00  6.9282901834e+00  2.6723404993e+01 
 2.4743893512e+01  0.0000000000e+00  0.0000000000e+00  0.0000000000e+00  0.0000000000e+00 
 0.0000000000e+00  0.0000000000e+00  0.0000000000e+00  0.0000000000e+00  2.9692672214e+00 
 9.8975574048e-01  2.9692672214e+00  0.0000000000e+00  0.0000000000e+00  0.0000000000e+00 
 0.0000000000e+00  0.0000000000e+00  0.0000000000e+00  9.8975574048e+00  6.7303390353e+01 
 5.8395588688e+01  1.7815603329e+01  3.9590229619e+00  0.0000000000e+00  0.0000000000e+00 