Li28 Sb4 S24
 1.00 
 10.415137 0.0 0.328035 
 0.336038 10.418435 -0.242565 
 0.0 0.0 10.426674 
 Li S Sb
 28 24 4
direct
 0.26648200  0.41600800  0.91647400 
 0.11841000  0.83252100  0.65858300 
 0.92952200  0.40103500  0.13541200 
 0.05163000  0.80616600  0.33985800 
 0.98152800  0.17155800  0.30626100 
 0.51236600  0.79907600  0.79948500 
 0.45999900  0.89745800  0.24462000 
 0.31179200  0.85611700  0.01693800 
 0.77310300  0.95538200  0.17876600 
 0.07143300  0.28373100  0.81236600 
 0.69329100  0.54540500  0.66630500 
 0.54932000  0.29853700  0.32025100 
 0.99181800  0.62949000  0.84539800 
 0.34320100  0.31259100  0.50414800 
 0.78227300  0.13859900  0.45846900 
 0.22259900  0.98152400  0.32012200 
 0.53874700  0.12660000  0.12041000 
 0.57597800  0.61960400  0.32962400 
 0.46071400  0.20763200  0.83790800 
 0.72165100  0.97935600  0.77073100 
 0.31599500  0.37711900  0.29176900 
 0.14504100  0.58646200  0.12604200 
 0.30033600  0.64723000  0.48750900 
 0.79905600  0.79008100  0.53290400 
 0.73078700  0.23175900  0.00324800 
 0.81714200  0.71871800  0.98707300 
 0.32747300  0.03913700  0.79934000 
 0.11112200  0.09140400  0.62993400 
 0.03174500  0.98549000  0.01549100 
 0.96789600  0.47514700  0.51148600 
 0.50940800  0.99493900  0.49755500 
 0.54561600  0.49373800  0.98419700 
 0.12444400  0.16677000  0.11708700 
 0.94928600  0.81027300  0.13460100 
 0.87784100  0.09408400  0.88403500 
 0.15781200  0.86139000  0.86793400 
 0.11194300  0.61278000  0.61113400 
 0.92771300  0.29699400  0.62589000 
 0.76858900  0.56331200  0.44224300 
 0.07327700  0.38754200  0.32697700 
 0.63403300  0.12493900  0.61453200 
 0.37867500  0.85307000  0.61932700 
 0.38652900  0.11939100  0.33441500 
 0.66198700  0.86149000  0.35602200 
 0.69093200  0.57828600  0.14352800 
 0.41800600  0.33518900  0.06401600 
 0.41099600  0.62400600  0.86957200 
 0.67239500  0.38635800  0.83841400 
 0.27312000  0.23623300  0.69522100 
 0.78006000  0.73972800  0.74710600 
 0.73620400  0.18730200  0.22498300 
 0.26434100  0.77720900  0.22786700 
 0.01728400  0.96822400  0.47651200 
 0.48722900  0.97632700  0.95664100 
 0.04679400  0.46071300  0.94754200 
 0.45530100  0.46469100  0.41938400 
 
 21 21 21 
 0.0000000000e+00  0.0000000000e+00  0.0000000000e+00  0.0000000000e+00  0.0000000000e+00 
 0.0000000000e+00  2.6784140004e+00  2.6784140004e+00  0.0000000000e+00  0.0000000000e+00 
 0.0000000000e+00  0.0000000000e+00  0.0000000000e+00  0.0000000000e+00  8.9280466681e-01 
 9.8208513349e+00  0.0000000000e+00  0.0000000000e+00  0.0000000000e+00  0.0000000000e+00 
 0.0000000000e+00  0.0000000000e+00  0.0000000000e+00  0.0000000000e+00  0.0000000000e+00 
 0.0000000000e+00  0.0000000000e+00  6.2496326677e+00  0.0000000000e+00  0.0000000000e+00 
 0.0000000000e+00  0.0000000000e+00  0.0000000000e+00  0.0000000000e+00  0.0000000000e+00 
 8.9280466681e+00  9.8208513349e+00  8.9280466681e-01  0.0000000000e+00  0.0000000000e+00 
 0.0000000000e+00  0.0000000000e+00  0.0000000000e+00  0.0000000000e+00  0.0000000000e+00 
 0.0000000000e+00  0.0000000000e+00  8.9280466681e-01  1.1606460669e+01  2.0534507337e+01 
 4.4640233341e+00  0.0000000000e+00  0.0000000000e+00  0.0000000000e+00  0.0000000000e+00 
 9.8208513349e+00  5.2675475342e+01  1.7856093336e+01  8.9280466681e-01  0.0000000000e+00 
 0.0000000000e+00  0.0000000000e+00  0.0000000000e+00  0.0000000000e+00  0.0000000000e+00 
 0.0000000000e+00  0.0000000000e+00  0.0000000000e+00  8.9280466681e-01  2.2320116670e+01 
 6.9638764011e+01  1.9641702670e+01  2.6784140004e+00  2.6784140004e+00  1.7856093336e+00 
 2.6784140004e+00  3.0355358672e+01  6.7853154678e+01  1.4284874669e+01  1.7856093336e+00 
 0.0000000000e+00  0.0000000000e+00  0.0000000000e+00  0.0000000000e+00  0.0000000000e+00 
 0.0000000000e+00  0.0000000000e+00  0.0000000000e+00  0.0000000000e+00  8.9280466681e-01 
 1.8748898003e+01  2.4998530671e+01  1.5177679336e+01  1.7856093336e+00  2.6784140004e+00 
 8.9280466681e-01  1.6070484003e+01  3.0355358672e+01  4.8211452008e+01  3.5712186672e+01 
 7.1424373345e+00  2.6784140004e+00  8.9280466681e-01  0.0000000000e+00  0.0000000000e+00 
 0.0000000000e+00  0.0000000000e+00  0.0000000000e+00  8.0352420013e+00  1.1606460669e+01 
 8.0352420013e+00  2.6784140004e+00  8.9280466681e-01  8.9280466681e-01  0.0000000000e+00 
 8.9280466681e-01  0.0000000000e+00  3.5712186672e+00  5.3568280009e+00  7.1424373345e+00 
 1.3392070002e+01  2.2320116670e+01  2.2320116670e+01  1.0713656002e+01  4.4640233341e+00 
 1.7856093336e+00  1.7856093336e+00  2.6784140004e+00  8.9280466681e+00  3.5712186672e+01 
 5.8032303343e+01  1.2499265335e+01  0.0000000000e+00  0.0000000000e+00  0.0000000000e+00 
 0.0000000000e+00  0.0000000000e+00  0.0000000000e+00  0.0000000000e+00  0.0000000000e+00 
 8.9280466681e-01  7.1424373345e+00  5.0889866008e+01  1.2588545802e+02  8.4816443347e+01 
 2.2320116670e+01  3.5712186672e+00  0.0000000000e+00  8.9280466681e-01  6.2496326677e+00 
 3.8390600673e+01  4.8211452008e+01  4.4640233341e+00  0.0000000000e+00  0.0000000000e+00 
 0.0000000000e+00  0.0000000000e+00  0.0000000000e+00  0.0000000000e+00  0.0000000000e+00 
 0.0000000000e+00  0.0000000000e+00  0.0000000000e+00  3.1248163338e+01  1.1606460669e+02 
 4.7318647341e+01  2.6784140004e+00  0.0000000000e+00  0.0000000000e+00  0.0000000000e+00 
 0.0000000000e+00  4.4640233341e+00  9.8208513349e+00  1.7856093336e+00  0.0000000000e+00 
 0.0000000000e+00  0.0000000000e+00  0.0000000000e+00  0.0000000000e+00  0.0000000000e+00 
 0.0000000000e+00  0.0000000000e+00  0.0000000000e+00  8.9280466681e-01  6.2496326677e+00 
 1.5177679336e+01  5.3568280009e+00  0.0000000000e+00  0.0000000000e+00  0.0000000000e+00 
 0.0000000000e+00  0.0000000000e+00  0.0000000000e+00  1.7856093336e+00  1.7856093336e+00 
 0.0000000000e+00  0.0000000000e+00  0.0000000000e+00  0.0000000000e+00  0.0000000000e+00 
 0.0000000000e+00  0.0000000000e+00  0.0000000000e+00  0.0000000000e+00  0.0000000000e+00 
 4.4640233341e+00  4.4640233341e+00  0.0000000000e+00  0.0000000000e+00  0.0000000000e+00 
 0.0000000000e+00  0.0000000000e+00  0.0000000000e+00  0.0000000000e+00  8.9280466681e-01 
 0.0000000000e+00  0.0000000000e+00  0.0000000000e+00  0.0000000000e+00  0.0000000000e+00 
 0.0000000000e+00  0.0000000000e+00  0.0000000000e+00  0.0000000000e+00  0.0000000000e+00 
 0.0000000000e+00  0.0000000000e+00  8.9280466681e-01  0.0000000000e+00  0.0000000000e+00 
 0.0000000000e+00  0.0000000000e+00  0.0000000000e+00  0.0000000000e+00  0.0000000000e+00 
 3.5712186672e+00  8.9280466681e-01  0.0000000000e+00  0.0000000000e+00  0.0000000000e+00 
 0.0000000000e+00  0.0000000000e+00  0.0000000000e+00  0.0000000000e+00  0.0000000000e+00 
 0.0000000000e+00  0.0000000000e+00  8.9280466681e-01  0.0000000000e+00  0.0000000000e+00 
 0.0000000000e+00  0.0000000000e+00  0.0000000000e+00  0.0000000000e+00  0.0000000000e+00 
 8.0352420013e+00  1.0713656002e+01  1.7856093336e+00  0.0000000000e+00  0.0000000000e+00 
 0.0000000000e+00  0.0000000000e+00  0.0000000000e+00  0.0000000000e+00  0.0000000000e+00 
 0.0000000000e+00  0.0000000000e+00  2.6784140004e+00  2.6784140004e+00  3.5712186672e+00 
 1.7856093336e+00  0.0000000000e+00  0.0000000000e+00  0.0000000000e+00  0.0000000000e+00 
 6.2496326677e+00  4.9997061341e+01  7.6781201346e+01  5.3568280009e+00  0.0000000000e+00 
 0.0000000000e+00  0.0000000000e+00  0.0000000000e+00  0.0000000000e+00  0.0000000000e+00 
 0.0000000000e+00  0.0000000000e+00  0.0000000000e+00  0.0000000000e+00  1.4284874669e+01 
 6.0710717343e+01  1.6963288669e+01  3.5712186672e+00  2.6784140004e+00  8.9280466681e-01 
 5.3568280009e+00  4.1961819340e+01  1.4017033269e+02  9.8208513349e+01  2.1427312003e+01 
 0.0000000000e+00  0.0000000000e+00  0.0000000000e+00  0.0000000000e+00  0.0000000000e+00 
 0.0000000000e+00  0.0000000000e+00  0.0000000000e+00  0.0000000000e+00  8.9280466681e-01 
 4.8211452008e+01  9.5530099349e+01  3.9283405340e+01  5.3568280009e+00  3.5712186672e+00 
 0.0000000000e+00  4.4640233341e+00  1.6963288669e+01  4.1069014673e+01  4.8211452008e+01 
 2.4998530671e+01  9.8208513349e+00  5.3568280009e+00  3.5712186672e+00  0.0000000000e+00 
 0.0000000000e+00  0.0000000000e+00  0.0000000000e+00  1.7856093336e+00  8.0352420013e+00 
 1.6963288669e+01  3.6604991339e+01  2.9462554005e+01  5.3568280009e+00  1.7856093336e+00 
 0.0000000000e+00  0.0000000000e+00  0.0000000000e+00  0.0000000000e+00  0.0000000000e+00 
 8.9280466681e-01  1.1606460669e+01  3.9283405340e+01  5.2675475342e+01  3.6604991339e+01 
 1.0713656002e+01  8.9280466681e-01  8.9280466681e-01  9.8208513349e+00  2.2320116670e+01 
 7.9459615346e+01  5.6246694009e+01  3.5712186672e+00  8.9280466681e-01  0.0000000000e+00 
 0.0000000000e+00  0.0000000000e+00  0.0000000000e+00  0.0000000000e+00  0.0000000000e+00 
 0.0000000000e+00  0.0000000000e+00  4.4640233341e+00  6.1603522010e+01  1.0535095068e+02 
 3.4819382006e+01  6.2496326677e+00  8.9280466681e-01  0.0000000000e+00  6.2496326677e+00 
 5.4461084675e+01  1.5266959802e+02  4.9104256675e+01  0.0000000000e+00  0.0000000000e+00 
 0.0000000000e+00  0.0000000000e+00  0.0000000000e+00  0.0000000000e+00  0.0000000000e+00 
 0.0000000000e+00  0.0000000000e+00  0.0000000000e+00  3.5712186672e+00  3.4819382006e+01 
 3.7497796006e+01  2.6784140004e+00  8.9280466681e-01  0.0000000000e+00  0.0000000000e+00 
 0.0000000000e+00  8.0352420013e+00  2.0534507337e+01  8.0352420013e+00  0.0000000000e+00 
 0.0000000000e+00  0.0000000000e+00  0.0000000000e+00  0.0000000000e+00  0.0000000000e+00 
 0.0000000000e+00  0.0000000000e+00  0.0000000000e+00  0.0000000000e+00  2.6784140004e+00 
 1.0713656002e+01  4.4640233341e+00  0.0000000000e+00  0.0000000000e+00  0.0000000000e+00 
 0.0000000000e+00  0.0000000000e+00  0.0000000000e+00  4.4640233341e+00  2.6784140004e+00 
 0.0000000000e+00  0.0000000000e+00  0.0000000000e+00  0.0000000000e+00  0.0000000000e+00 
 0.0000000000e+00  0.0000000000e+00  0.0000000000e+00  0.0000000000e+00  0.0000000000e+00 
 0.0000000000e+00  5.3568280009e+00  3.5712186672e+00  0.0000000000e+00  0.0000000000e+00 
 0.0000000000e+00  0.0000000000e+00  0.0000000000e+00  0.0000000000e+00  8.9280466681e-01 
 4.4640233341e+00  0.0000000000e+00  0.0000000000e+00  0.0000000000e+00  0.0000000000e+00 
 0.0000000000e+00  0.0000000000e+00  0.0000000000e+00  0.0000000000e+00  0.0000000000e+00 
 0.0000000000e+00  0.0000000000e+00  3.5712186672e+00  1.7856093336e+00  8.9280466681e-01 
 0.0000000000e+00  0.0000000000e+00  0.0000000000e+00  0.0000000000e+00  8.9280466681e-01 
 3.5712186672e+00  8.0352420013e+00  8.9280466681e-01  0.0000000000e+00  0.0000000000e+00 
 0.0000000000e+00  0.0000000000e+00  0.0000000000e+00  0.0000000000e+00  0.0000000000e+00 
 0.0000000000e+00  0.0000000000e+00  0.0000000000e+00  1.7856093336e+00  1.7856093336e+00 
 8.9280466681e-01  0.0000000000e+00  0.0000000000e+00  0.0000000000e+00  0.0000000000e+00 
 2.6784140004e+00  2.6784140004e+01  3.5712186672e+01  8.9280466681e-01  0.0000000000e+00 
 0.0000000000e+00  0.0000000000e+00  0.0000000000e+00  0.0000000000e+00  0.0000000000e+00 
 0.0000000000e+00  0.0000000000e+00  0.0000000000e+00  0.0000000000e+00  2.6784140004e+00 
 1.7856093336e+01  1.8748898003e+01  2.6784140004e+00  8.9280466681e-01  0.0000000000e+00 
 4.4640233341e+00  1.6070484003e+01  5.2675475342e+01  3.3926577339e+01  3.5712186672e+00 
 0.0000000000e+00  0.0000000000e+00  0.0000000000e+00  0.0000000000e+00  0.0000000000e+00 
 0.0000000000e+00  0.0000000000e+00  0.0000000000e+00  0.0000000000e+00  0.0000000000e+00 
 8.9280466681e-01  1.8748898003e+01  1.6963288669e+01  5.3568280009e+00  8.9280466681e-01 
 7.1424373345e+00  2.2320116670e+01  4.0176210006e+01  4.9104256675e+01  2.1427312003e+01 
 6.2496326677e+00  0.0000000000e+00  0.0000000000e+00  0.0000000000e+00  0.0000000000e+00 
 0.0000000000e+00  0.0000000000e+00  0.0000000000e+00  0.0000000000e+00  0.0000000000e+00 
 1.7856093336e+00  1.7856093336e+00  6.2496326677e+00  3.5712186672e+00  1.7856093336e+00 
 3.5712186672e+00  1.6070484003e+01  3.2140968005e+01  2.9462554005e+01  1.9641702670e+01 
 1.5177679336e+01  2.6784140004e+00  8.9280466681e-01  3.5712186672e+00  0.0000000000e+00 
 0.0000000000e+00  0.0000000000e+00  0.0000000000e+00  0.0000000000e+00  0.0000000000e+00 
 1.7856093336e+00  1.7856093336e+00  8.9280466681e-01  8.9280466681e-01  0.0000000000e+00 
 0.0000000000e+00  8.9280466681e-01  6.2496326677e+00  1.2499265335e+01  1.7856093336e+00 
 4.4640233341e+00  6.2496326677e+00  8.0352420013e+00  8.0352420013e+00  2.7676944671e+01 
 1.3392070002e+01  8.0352420013e+00  0.0000000000e+00  0.0000000000e+00  0.0000000000e+00 
 1.8748898003e+01  4.4640233341e+00  8.9280466681e-01  0.0000000000e+00  0.0000000000e+00 
 0.0000000000e+00  0.0000000000e+00  0.0000000000e+00  0.0000000000e+00  0.0000000000e+00 
 0.0000000000e+00  0.0000000000e+00  6.2496326677e+00  1.8748898003e+01  5.0889866008e+01 
 8.5709248014e+01  4.6425842674e+01  1.4284874669e+01  1.7856093336e+00  8.9280466681e-01 
 1.6963288669e+01  5.0889866008e+01  8.9280466681e+00  3.5712186672e+00  0.0000000000e+00 
 0.0000000000e+00  0.0000000000e+00  0.0000000000e+00  0.0000000000e+00  0.0000000000e+00 
 0.0000000000e+00  0.0000000000e+00  0.0000000000e+00  2.6784140004e+00  2.7676944671e+01 
 1.0356534135e+02  5.8925108010e+01  1.4284874669e+01  0.0000000000e+00  0.0000000000e+00 
 0.0000000000e+00  8.9280466681e-01  7.1424373345e+00  4.4640233341e+00  8.9280466681e-01 
 0.0000000000e+00  0.0000000000e+00  0.0000000000e+00  0.0000000000e+00  0.0000000000e+00 
 0.0000000000e+00  0.0000000000e+00  0.0000000000e+00  0.0000000000e+00  2.6784140004e+00 
 2.5891335338e+01  4.7318647341e+01  1.7856093336e+01  0.0000000000e+00  0.0000000000e+00 
 0.0000000000e+00  0.0000000000e+00  0.0000000000e+00  2.6784140004e+00  8.9280466681e-01 
 0.0000000000e+00  0.0000000000e+00  0.0000000000e+00  0.0000000000e+00  0.0000000000e+00 
 0.0000000000e+00  0.0000000000e+00  0.0000000000e+00  0.0000000000e+00  0.0000000000e+00 
 0.0000000000e+00  8.0352420013e+00  1.0713656002e+01  1.7856093336e+00  0.0000000000e+00 
 0.0000000000e+00  0.0000000000e+00  0.0000000000e+00  0.0000000000e+00  0.0000000000e+00 
 1.7856093336e+00  0.0000000000e+00  0.0000000000e+00  0.0000000000e+00  0.0000000000e+00 
 0.0000000000e+00  0.0000000000e+00  0.0000000000e+00  0.0000000000e+00  0.0000000000e+00 
 0.0000000000e+00  0.0000000000e+00  1.7856093336e+00  1.7856093336e+00  0.0000000000e+00 
 0.0000000000e+00  0.0000000000e+00  0.0000000000e+00  0.0000000000e+00  0.0000000000e+00 
 3.5712186672e+00  7.1424373345e+00  4.4640233341e+00  0.0000000000e+00  0.0000000000e+00 
 0.0000000000e+00  0.0000000000e+00  0.0000000000e+00  0.0000000000e+00  0.0000000000e+00 
 0.0000000000e+00  0.0000000000e+00  0.0000000000e+00  8.9280466681e-01  4.4640233341e+00 
 8.9280466681e-01  0.0000000000e+00  0.0000000000e+00  0.0000000000e+00  0.0000000000e+00 
 8.9280466681e-01  1.9641702670e+01  5.8925108010e+01  1.9641702670e+01  8.9280466681e-01 
 0.0000000000e+00  0.0000000000e+00  0.0000000000e+00  0.0000000000e+00  0.0000000000e+00 
 0.0000000000e+00  0.0000000000e+00  0.0000000000e+00  0.0000000000e+00  3.5712186672e+00 
 6.2496326677e+00  5.3568280009e+00  8.9280466681e-01  0.0000000000e+00  0.0000000000e+00 
 0.0000000000e+00  2.0534507337e+01  7.0531568678e+01  5.9817912676e+01  6.2496326677e+00 
 1.7856093336e+00  0.0000000000e+00  0.0000000000e+00  0.0000000000e+00  0.0000000000e+00 
 0.0000000000e+00  0.0000000000e+00  0.0000000000e+00  0.0000000000e+00  0.0000000000e+00 
 3.5712186672e+00  3.5712186672e+01  1.8748898003e+01  3.5712186672e+00  1.7856093336e+00 
 1.7856093336e+00  1.2499265335e+01  6.5174740677e+01  7.4102787345e+01  4.1961819340e+01 
 1.0713656002e+01  0.0000000000e+00  0.0000000000e+00  0.0000000000e+00  0.0000000000e+00 
 0.0000000000e+00  0.0000000000e+00  0.0000000000e+00  0.0000000000e+00  0.0000000000e+00 
 0.0000000000e+00  7.1424373345e+00  3.7497796006e+01  1.9641702670e+01  8.9280466681e-01 
 2.6784140004e+00  2.6784140004e+00  1.9641702670e+01  2.4105726004e+01  2.2320116670e+01 
 1.6070484003e+01  1.4284874669e+01  6.2496326677e+00  2.6784140004e+00  8.0352420013e+00 
 8.9280466681e+00  8.9280466681e-01  0.0000000000e+00  0.0000000000e+00  0.0000000000e+00 
 0.0000000000e+00  0.0000000000e+00  2.6784140004e+00  7.1424373345e+00  2.6784140004e+00 
 0.0000000000e+00  0.0000000000e+00  0.0000000000e+00  0.0000000000e+00  1.7856093336e+00 
 0.0000000000e+00  4.4640233341e+00  8.0352420013e+00  9.8208513349e+00  4.1961819340e+01 
 8.1245224680e+01  4.3747428674e+01  1.1606460669e+01  1.7856093336e+00  0.0000000000e+00 
 2.6784140004e+00  4.4640233341e+00  6.2496326677e+00  0.0000000000e+00  0.0000000000e+00 
 0.0000000000e+00  0.0000000000e+00  0.0000000000e+00  0.0000000000e+00  0.0000000000e+00 
 0.0000000000e+00  0.0000000000e+00  8.9280466681e-01  8.0352420013e+00  3.9283405340e+01 
 1.0177973202e+02  9.7315708682e+01  3.5712186672e+01  5.3568280009e+00  1.7856093336e+00 
 2.6784140004e+00  1.7856093336e+01  3.4819382006e+01  4.4640233341e+00  0.0000000000e+00 
 0.0000000000e+00  0.0000000000e+00  0.0000000000e+00  0.0000000000e+00  0.0000000000e+00 
 0.0000000000e+00  0.0000000000e+00  0.0000000000e+00  0.0000000000e+00  8.9280466681e+00 
 3.6604991339e+01  5.9817912676e+01  1.9641702670e+01  3.5712186672e+00  0.0000000000e+00 
 1.7856093336e+00  3.5712186672e+00  5.3568280009e+00  8.9280466681e-01  8.9280466681e-01 
 0.0000000000e+00  0.0000000000e+00  0.0000000000e+00  0.0000000000e+00  0.0000000000e+00 
 0.0000000000e+00  0.0000000000e+00  0.0000000000e+00  0.0000000000e+00  0.0000000000e+00 
 8.0352420013e+00  3.3033772672e+01  2.1427312003e+01  2.6784140004e+00  0.0000000000e+00 
 0.0000000000e+00  0.0000000000e+00  8.9280466681e-01  3.5712186672e+00  1.7856093336e+00 
 2.6784140004e+00  0.0000000000e+00  0.0000000000e+00  0.0000000000e+00  0.0000000000e+00 
 0.0000000000e+00  0.0000000000e+00  0.0000000000e+00  0.0000000000e+00  0.0000000000e+00 
 0.0000000000e+00  2.6784140004e+00  5.3568280009e+00  2.6784140004e+00  0.0000000000e+00 
 0.0000000000e+00  0.0000000000e+00  0.0000000000e+00  0.0000000000e+00  0.0000000000e+00 
 3.5712186672e+00  3.5712186672e+00  0.0000000000e+00  0.0000000000e+00  0.0000000000e+00 
 0.0000000000e+00  0.0000000000e+00  0.0000000000e+00  0.0000000000e+00  0.0000000000e+00 
 0.0000000000e+00  0.0000000000e+00  0.0000000000e+00  3.5712186672e+00  1.5177679336e+01 
 5.3568280009e+00  8.9280466681e-01  0.0000000000e+00  0.0000000000e+00  2.6784140004e+00 
 8.0352420013e+00  1.6963288669e+01  2.6784140004e+01  2.6784140004e+00  0.0000000000e+00 
 0.0000000000e+00  0.0000000000e+00  0.0000000000e+00  0.0000000000e+00  0.0000000000e+00 
 0.0000000000e+00  0.0000000000e+00  0.0000000000e+00  0.0000000000e+00  8.9280466681e-01 
 8.0352420013e+00  1.1606460669e+01  0.0000000000e+00  0.0000000000e+00  1.7856093336e+00 
 1.7856093336e+00  2.4998530671e+01  4.1961819340e+01  4.4640233341e+01  5.3568280009e+00 
 0.0000000000e+00  0.0000000000e+00  0.0000000000e+00  0.0000000000e+00  0.0000000000e+00 
 0.0000000000e+00  0.0000000000e+00  0.0000000000e+00  0.0000000000e+00  0.0000000000e+00 
 0.0000000000e+00  1.4284874669e+01  3.9283405340e+01  1.6963288669e+01  1.2499265335e+01 
 9.8208513349e+00  2.7676944671e+01  3.3926577339e+01  4.0176210006e+01  1.6963288669e+01 
 7.1424373345e+00  8.9280466681e-01  0.0000000000e+00  0.0000000000e+00  0.0000000000e+00 
 0.0000000000e+00  0.0000000000e+00  0.0000000000e+00  0.0000000000e+00  0.0000000000e+00 
 0.0000000000e+00  0.0000000000e+00  1.3392070002e+01  2.8569749338e+01  1.9641702670e+01 
 1.9641702670e+01  4.1069014673e+01  6.1603522010e+01  2.6784140004e+01  8.9280466681e+00 
 3.5712186672e+00  4.4640233341e+00  0.0000000000e+00  0.0000000000e+00  0.0000000000e+00 
 0.0000000000e+00  0.0000000000e+00  0.0000000000e+00  0.0000000000e+00  0.0000000000e+00 
 0.0000000000e+00  0.0000000000e+00  0.0000000000e+00  2.6784140004e+00  0.0000000000e+00 
 2.6784140004e+00  4.4640233341e+00  2.1427312003e+01  3.2140968005e+01  1.1606460669e+01 
 0.0000000000e+00  0.0000000000e+00  0.0000000000e+00  0.0000000000e+00  1.7856093336e+00 
 1.7856093336e+00  0.0000000000e+00  0.0000000000e+00  0.0000000000e+00  0.0000000000e+00 
 0.0000000000e+00  0.0000000000e+00  0.0000000000e+00  0.0000000000e+00  0.0000000000e+00 
 0.0000000000e+00  0.0000000000e+00  0.0000000000e+00  0.0000000000e+00  8.9280466681e+00 
 3.5712186672e+00  0.0000000000e+00  0.0000000000e+00  8.9280466681e-01  0.0000000000e+00 
 7.1424373345e+00  1.0713656002e+01  6.2496326677e+00  1.7856093336e+01  1.2499265335e+01 
 4.4640233341e+00  9.8208513349e+00  3.5712186672e+00  0.0000000000e+00  0.0000000000e+00 
 0.0000000000e+00  0.0000000000e+00  0.0000000000e+00  0.0000000000e+00  0.0000000000e+00 
 0.0000000000e+00  0.0000000000e+00  0.0000000000e+00  0.0000000000e+00  1.7856093336e+00 
 2.6784140004e+00  9.8208513349e+00  4.0176210006e+01  2.0534507337e+01  5.3568280009e+00 
 1.1606460669e+01  2.0534507337e+01  4.7318647341e+01  1.9641702670e+01  1.7856093336e+00 
 0.0000000000e+00  0.0000000000e+00  0.0000000000e+00  0.0000000000e+00  0.0000000000e+00 
 0.0000000000e+00  0.0000000000e+00  0.0000000000e+00  0.0000000000e+00  0.0000000000e+00 
 3.5712186672e+00  8.0352420013e+00  3.6604991339e+01  3.0355358672e+01  5.3568280009e+00 
 0.0000000000e+00  4.4640233341e+00  1.8748898003e+01  3.5712186672e+01  1.2499265335e+01 
 0.0000000000e+00  0.0000000000e+00  0.0000000000e+00  0.0000000000e+00  0.0000000000e+00 
 0.0000000000e+00  0.0000000000e+00  0.0000000000e+00  0.0000000000e+00  0.0000000000e+00 
 0.0000000000e+00  1.3392070002e+01  2.7676944671e+01  2.1427312003e+01  2.6784140004e+00 
 0.0000000000e+00  0.0000000000e+00  0.0000000000e+00  0.0000000000e+00  1.7856093336e+01 
 7.1424373345e+00  0.0000000000e+00  0.0000000000e+00  0.0000000000e+00  0.0000000000e+00 
 0.0000000000e+00  0.0000000000e+00  0.0000000000e+00  0.0000000000e+00  0.0000000000e+00 
 0.0000000000e+00  8.9280466681e-01  1.1606460669e+01  1.8748898003e+01  6.2496326677e+00 
 8.9280466681e-01  0.0000000000e+00  0.0000000000e+00  0.0000000000e+00  0.0000000000e+00 
 1.0713656002e+01  1.7856093336e+01  8.9280466681e-01  0.0000000000e+00  0.0000000000e+00 
 0.0000000000e+00  0.0000000000e+00  0.0000000000e+00  0.0000000000e+00  0.0000000000e+00 
 0.0000000000e+00  0.0000000000e+00  0.0000000000e+00  1.7856093336e+00  1.0713656002e+01 
 1.7856093336e+00  8.9280466681e-01  0.0000000000e+00  0.0000000000e+00  0.0000000000e+00 
 8.9280466681e-01  2.8569749338e+01  5.2675475342e+01  1.3392070002e+01  2.6784140004e+00 
 0.0000000000e+00  0.0000000000e+00  0.0000000000e+00  0.0000000000e+00  0.0000000000e+00 
 0.0000000000e+00  0.0000000000e+00  0.0000000000e+00  0.0000000000e+00  0.0000000000e+00 
 1.7856093336e+01  9.8208513349e+00  0.0000000000e+00  0.0000000000e+00  8.9280466681e-01 
 8.9280466681e-01  8.0352420013e+00  3.5712186672e+01  3.6604991339e+01  1.4284874669e+01 
 1.7856093336e+00  0.0000000000e+00  0.0000000000e+00  0.0000000000e+00  0.0000000000e+00 
 0.0000000000e+00  0.0000000000e+00  0.0000000000e+00  0.0000000000e+00  0.0000000000e+00 
 0.0000000000e+00  3.2140968005e+01  2.9462554005e+01  1.3392070002e+01  0.0000000000e+00 
 1.7856093336e+00  7.1424373345e+00  2.5891335338e+01  1.6070484003e+01  1.5177679336e+01 
 2.6784140004e+00  0.0000000000e+00  0.0000000000e+00  0.0000000000e+00  0.0000000000e+00 
 0.0000000000e+00  0.0000000000e+00  0.0000000000e+00  0.0000000000e+00  0.0000000000e+00 
 0.0000000000e+00  8.9280466681e-01  1.8748898003e+01  4.9104256675e+01  1.6070484003e+01 
 1.0713656002e+01  1.5177679336e+01  2.0534507337e+01  2.9462554005e+01  8.9280466681e+00 
 0.0000000000e+00  0.0000000000e+00  0.0000000000e+00  0.0000000000e+00  0.0000000000e+00 
 8.9280466681e-01  0.0000000000e+00  0.0000000000e+00  0.0000000000e+00  0.0000000000e+00 
 0.0000000000e+00  0.0000000000e+00  0.0000000000e+00  4.4640233341e+00  2.6784140004e+00 
 4.4640233341e+00  5.3568280009e+00  1.7856093336e+00  1.0713656002e+01  7.1424373345e+00 
 0.0000000000e+00  8.9280466681e-01  0.0000000000e+00  0.0000000000e+00  0.0000000000e+00 
 8.0352420013e+00  9.8208513349e+00  0.0000000000e+00  0.0000000000e+00  8.9280466681e-01 
 0.0000000000e+00  0.0000000000e+00  0.0000000000e+00  0.0000000000e+00  0.0000000000e+00 
 0.0000000000e+00  0.0000000000e+00  8.9280466681e-01  0.0000000000e+00  0.0000000000e+00 
 8.9280466681e-01  0.0000000000e+00  0.0000000000e+00  0.0000000000e+00  0.0000000000e+00 
 5.3568280009e+00  5.0889866008e+01  7.1424373345e+01  1.6070484003e+01  9.8208513349e+00 
 0.0000000000e+00  0.0000000000e+00  1.7856093336e+00  0.0000000000e+00  0.0000000000e+00 
 0.0000000000e+00  0.0000000000e+00  0.0000000000e+00  0.0000000000e+00  0.0000000000e+00 
 0.0000000000e+00  0.0000000000e+00  0.0000000000e+00  0.0000000000e+00  0.0000000000e+00 
 5.3568280009e+00  2.1427312003e+01  8.2138029347e+01  5.4461084675e+01  1.9641702670e+01 
 6.2496326677e+00  6.2496326677e+00  1.7856093336e+00  8.9280466681e-01  8.9280466681e-01 
 0.0000000000e+00  0.0000000000e+00  0.0000000000e+00  0.0000000000e+00  0.0000000000e+00 
 0.0000000000e+00  0.0000000000e+00  0.0000000000e+00  0.0000000000e+00  0.0000000000e+00 
 1.7856093336e+00  1.4284874669e+01  4.2854624007e+01  4.1961819340e+01  1.8748898003e+01 
 6.2496326677e+00  1.7856093336e+00  1.1606460669e+01  1.0713656002e+01  3.5712186672e+00 
 0.0000000000e+00  0.0000000000e+00  0.0000000000e+00  0.0000000000e+00  0.0000000000e+00 
 0.0000000000e+00  0.0000000000e+00  0.0000000000e+00  0.0000000000e+00  0.0000000000e+00 
 0.0000000000e+00  5.3568280009e+00  1.6963288669e+01  2.2320116670e+01  1.3392070002e+01 
 2.6784140004e+00  8.9280466681e-01  0.0000000000e+00  5.3568280009e+00  1.7856093336e+00 
 0.0000000000e+00  1.7856093336e+00  0.0000000000e+00  0.0000000000e+00  0.0000000000e+00 
 0.0000000000e+00  0.0000000000e+00  0.0000000000e+00  0.0000000000e+00  0.0000000000e+00 
 0.0000000000e+00  0.0000000000e+00  0.0000000000e+00  6.2496326677e+00  9.8208513349e+00 
 7.1424373345e+00  0.0000000000e+00  0.0000000000e+00  8.9280466681e-01  1.7856093336e+00 
 6.2496326677e+00  6.2496326677e+00  4.4640233341e+00  0.0000000000e+00  0.0000000000e+00 
 0.0000000000e+00  0.0000000000e+00  0.0000000000e+00  0.0000000000e+00  0.0000000000e+00 
 0.0000000000e+00  0.0000000000e+00  0.0000000000e+00  0.0000000000e+00  1.4284874669e+01 
 3.6604991339e+01  5.3568280009e+00  0.0000000000e+00  8.9280466681e-01  1.7856093336e+00 
 2.6784140004e+00  1.7856093336e+01  5.0889866008e+01  3.3033772672e+01  5.3568280009e+00 
 0.0000000000e+00  0.0000000000e+00  0.0000000000e+00  0.0000000000e+00  0.0000000000e+00 
 0.0000000000e+00  0.0000000000e+00  0.0000000000e+00  0.0000000000e+00  8.9280466681e-01 
 6.2496326677e+00  1.6070484003e+01  8.0352420013e+00  1.7856093336e+00  1.7856093336e+00 
 8.9280466681e+00  1.4284874669e+01  3.0355358672e+01  4.3747428674e+01  2.9462554005e+01 
 3.5712186672e+00  1.7856093336e+00  0.0000000000e+00  0.0000000000e+00  0.0000000000e+00 
 0.0000000000e+00  0.0000000000e+00  0.0000000000e+00  0.0000000000e+00  0.0000000000e+00 
 0.0000000000e+00  0.0000000000e+00  1.6963288669e+01  2.7676944671e+01  2.2320116670e+01 
 2.2320116670e+01  4.0176210006e+01  5.6246694009e+01  5.0889866008e+01  9.8208513349e+00 
 2.6784140004e+00  3.5712186672e+00  8.9280466681e-01  0.0000000000e+00  0.0000000000e+00 
 0.0000000000e+00  0.0000000000e+00  0.0000000000e+00  0.0000000000e+00  0.0000000000e+00 
 0.0000000000e+00  0.0000000000e+00  0.0000000000e+00  6.2496326677e+00  7.1424373345e+00 
 2.3212921337e+01  7.9459615346e+01  8.9280466681e+01  7.1424373345e+01  9.8208513349e+00 
 0.0000000000e+00  0.0000000000e+00  8.9280466681e-01  0.0000000000e+00  0.0000000000e+00 
 0.0000000000e+00  0.0000000000e+00  0.0000000000e+00  0.0000000000e+00  0.0000000000e+00 
 0.0000000000e+00  0.0000000000e+00  0.0000000000e+00  0.0000000000e+00  0.0000000000e+00 
 0.0000000000e+00  1.7856093336e+00  2.7676944671e+01  4.9997061341e+01  2.4998530671e+01 
 3.5712186672e+00  0.0000000000e+00  0.0000000000e+00  0.0000000000e+00  0.0000000000e+00 
 0.0000000000e+00  0.0000000000e+00  0.0000000000e+00  7.1424373345e+00  0.0000000000e+00 
 0.0000000000e+00  0.0000000000e+00  0.0000000000e+00  0.0000000000e+00  0.0000000000e+00 
 0.0000000000e+00  0.0000000000e+00  0.0000000000e+00  2.6784140004e+00  3.5712186672e+00 
 1.7856093336e+00  0.0000000000e+00  0.0000000000e+00  0.0000000000e+00  0.0000000000e+00 
 0.0000000000e+00  8.9280466681e-01  5.3568280009e+00  8.9280466681e+00  4.3747428674e+01 
 1.3392070002e+01  7.1424373345e+00  3.5712186672e+00  0.0000000000e+00  0.0000000000e+00 
 0.0000000000e+00  0.0000000000e+00  0.0000000000e+00  0.0000000000e+00  0.0000000000e+00 
 0.0000000000e+00  0.0000000000e+00  0.0000000000e+00  0.0000000000e+00  0.0000000000e+00 
 0.0000000000e+00  0.0000000000e+00  8.9280466681e-01  1.7856093336e+01  4.4640233341e+01 
 2.9462554005e+01  2.0534507337e+01  2.4998530671e+01  1.6963288669e+01  4.4640233341e+00 
 0.0000000000e+00  0.0000000000e+00  0.0000000000e+00  0.0000000000e+00  0.0000000000e+00 
 0.0000000000e+00  0.0000000000e+00  0.0000000000e+00  0.0000000000e+00  0.0000000000e+00 
 0.0000000000e+00  8.9280466681e-01  5.3568280009e+00  6.2496326677e+00  3.6604991339e+01 
 4.6425842674e+01  3.5712186672e+00  1.1606460669e+01  1.7856093336e+01  1.6070484003e+01 
 6.2496326677e+00  0.0000000000e+00  0.0000000000e+00  0.0000000000e+00  0.0000000000e+00 
 0.0000000000e+00  0.0000000000e+00  0.0000000000e+00  0.0000000000e+00  0.0000000000e+00 
 0.0000000000e+00  8.9280466681e-01  2.6784140004e+00  8.0352420013e+00  2.3212921337e+01 
 2.1427312003e+01  1.4284874669e+01  8.9280466681e-01  2.6784140004e+00  1.2499265335e+01 
 3.6604991339e+01  1.8748898003e+01  8.9280466681e-01  0.0000000000e+00  0.0000000000e+00 
 0.0000000000e+00  0.0000000000e+00  0.0000000000e+00  0.0000000000e+00  0.0000000000e+00 