Li28 Sb4 Se24
 1.00 
 11.035044 0.0 0.342878 
 0.348663 10.854391 -0.355417 
 0.0 0.0 10.865804 
 Li Sb Se
 28 4 24
direct
 0.98388300  0.26479300  0.74902600 
 0.01713300  0.82118100  0.66868000 
 0.09741700  0.57167600  0.16301700 
 0.20116000  0.90254400  0.42250300 
 0.94516900  0.18228300  0.39799600 
 0.68327900  0.80669000  0.97548800 
 0.29841700  0.25810300  0.53655300 
 0.30684500  0.93918200  0.16623200 
 0.49504200  0.73259100  0.14850400 
 0.16535700  0.34019800  0.97839700 
 0.92640900  0.69552700  0.92683700 
 0.73312400  0.50661100  0.27173200 
 0.17943200  0.48773600  0.75489400 
 0.45830400  0.39788700  0.67307300 
 0.63837600  0.28744600  0.45097800 
 0.02527200  0.86372800  0.32767400 
 0.54315800  0.28801900  0.23119300 
 0.43256000  0.69497500  0.45733400 
 0.81969000  0.99159700  0.73469500 
 0.47938900  0.81971900  0.81711400 
 0.34524700  0.46050000  0.27464300 
 0.28211200  0.75338100  0.96915400 
 0.86467000  0.54473800  0.76305600 
 0.82826600  0.81827400  0.53041500 
 0.67574400  0.09513300  0.09630400 
 0.84246700  0.35384200  0.05803400 
 0.39733600  0.12119200  0.93531300 
 0.18915100  0.05465300  0.73653400 
 0.02434700  0.01848300  0.03552600 
 0.01549200  0.50392600  0.47683300 
 0.51690600  0.96524700  0.47158000 
 0.53563300  0.45370200  0.90919900 
 0.19020900  0.15427800  0.15381800 
 0.88689900  0.86019700  0.14029500 
 0.85645400  0.13957700  0.94487900 
 0.11453000  0.89500000  0.88612100 
 0.15062100  0.64090800  0.59785800 
 0.85000900  0.36743800  0.59698100 
 0.91629300  0.62596400  0.29549100 
 0.12194100  0.30983300  0.36818900 
 0.66572500  0.09681000  0.59179200 
 0.37709000  0.86292900  0.63835700 
 0.39822100  0.09946500  0.33696400 
 0.62230000  0.78488000  0.37972400 
 0.65703900  0.59050800  0.04833100 
 0.38853200  0.35428700  0.06211900 
 0.39132600  0.59639900  0.78990200 
 0.58364400  0.23088600  0.74734900 
 0.22496400  0.25105000  0.76938100 
 0.81262700  0.78238900  0.75987100 
 0.75970900  0.26045700  0.26835700 
 0.25107700  0.73763700  0.26011700 
 0.02429300  0.00637500  0.53855200 
 0.47950900  0.93085100  0.01785600 
 0.99436100  0.50739600  0.95128700 
 0.45709900  0.44306900  0.44503600 
 
 23 22 22 
 0.0000000000e+00  0.0000000000e+00  0.0000000000e+00  0.0000000000e+00  0.0000000000e+00 
 0.0000000000e+00  0.0000000000e+00  4.2927120401e+00  1.0731780100e+00  1.0731780100e+00 
 2.1463560201e+00  7.5122460702e+00  1.5024492140e+01  1.2878136120e+01  1.0731780100e+00 
 1.3951314130e+01  4.2927120401e+00  4.2927120401e+00  5.3658900502e+00  3.2195340301e+00 
 1.0731780100e+01  2.3609916221e+01  5.3658900502e+00  0.0000000000e+00  0.0000000000e+00 
 4.2927120401e+00  1.0731780100e+00  0.0000000000e+00  0.0000000000e+00  0.0000000000e+00 
 3.2195340301e+00  0.0000000000e+00  0.0000000000e+00  0.0000000000e+00  4.2927120401e+00 
 3.2195340301e+00  0.0000000000e+00  1.0731780100e+00  6.4390680602e+00  0.0000000000e+00 
 1.0731780100e+00  1.0731780100e+00  2.1463560201e+00  1.0731780100e+01  1.3951314130e+01 
 2.1463560201e+00  7.5122460702e+00  5.3658900502e+00  6.4390680602e+00  2.1463560201e+00 
 0.0000000000e+00  1.0731780100e+00  2.1463560201e+00  1.0731780100e+00  1.0731780100e+00 
 0.0000000000e+00  0.0000000000e+00  0.0000000000e+00  0.0000000000e+00  1.0731780100e+00 
 2.1463560201e+00  1.0731780100e+01  6.4390680602e+00  2.1463560201e+00  1.0731780100e+00 
 7.5122460702e+00  1.0731780100e+01  2.4683094231e+01  5.3658900502e+00  1.2878136120e+01 
 1.1804958110e+01  4.2927120401e+00  2.1463560201e+00  7.5122460702e+00  7.5122460702e+00 
 4.2927120401e+00  3.2195340301e+00  8.5854240803e+00  1.0731780100e+01  2.1463560201e+00 
 1.0731780100e+00  2.1463560201e+00  2.3609916221e+01  2.6829450251e+01  2.0390382191e+01 
 2.3609916221e+01  9.6586020903e+00  7.5122460702e+00  6.4390680602e+00  6.4390680602e+00 
 1.1804958110e+01  9.6586020903e+00  6.4390680602e+00  7.5122460702e+00  1.0731780100e+00 
 2.1463560201e+00  1.7170848161e+01  1.2878136120e+01  6.4390680602e+00  4.2927120401e+00 
 2.6829450251e+01  2.2536738211e+01  7.5122460702e+00  3.2195340301e+00  3.9707586371e+01 
 6.3317502592e+01  4.7219832442e+01  3.4341696321e+01  1.9317204181e+01  1.0731780100e+01 
 1.3951314130e+01  1.1804958110e+01  1.5024492140e+01  1.6097670151e+01  2.1463560201e+00 
 0.0000000000e+00  1.0731780100e+00  2.1463560201e+00  2.1463560201e+00  1.9317204181e+01 
 2.2536738211e+01  1.8244026171e+01  1.9317204181e+01  1.6097670151e+01  2.3609916221e+01 
 1.1804958110e+01  7.5122460702e+00  3.0048984281e+01  4.6146654432e+01  4.2927120401e+01 
 2.5756272241e+01  5.3658900502e+00  1.2878136120e+01  1.6097670151e+01  1.0731780100e+01 
 3.4341696321e+01  1.7170848161e+01  7.5122460702e+00  0.0000000000e+00  1.0731780100e+00 
 0.0000000000e+00  8.5854240803e+00  5.3658900502e+01  4.0780764381e+01  1.5024492140e+01 
 1.7170848161e+01  6.4390680602e+00  4.2927120401e+00  4.2927120401e+00  5.3658900502e+00 
 1.8244026171e+01  1.9317204181e+01  9.6586020903e+00  5.3658900502e+00  1.0731780100e+00 
 5.3658900502e+00  7.5122460702e+00  1.5024492140e+01  2.0390382191e+01  6.4390680602e+00 
 1.0731780100e+00  0.0000000000e+00  0.0000000000e+00  0.0000000000e+00  1.0731780100e+01 
 4.4000298411e+01  3.9707586371e+01  1.1804958110e+01  4.2927120401e+00  2.1463560201e+00 
 0.0000000000e+00  0.0000000000e+00  1.0731780100e+00  6.4390680602e+00  6.4390680602e+00 
 3.2195340301e+00  1.0731780100e+00  0.0000000000e+00  4.2927120401e+00  7.5122460702e+00 
 1.0731780100e+01  0.0000000000e+00  1.0731780100e+00  0.0000000000e+00  0.0000000000e+00 
 0.0000000000e+00  1.0731780100e+00  2.1463560201e+00  1.1804958110e+01  1.3951314130e+01 
 3.2195340301e+00  7.5122460702e+00  5.3658900502e+00  2.1463560201e+00  3.2195340301e+00 
 0.0000000000e+00  1.0731780100e+00  1.0731780100e+00  2.1463560201e+00  0.0000000000e+00 
 1.0731780100e+00  8.5854240803e+00  9.6586020903e+00  3.2195340301e+00  1.0731780100e+00 
 0.0000000000e+00  0.0000000000e+00  0.0000000000e+00  0.0000000000e+00  0.0000000000e+00 
 0.0000000000e+00  8.5854240803e+00  8.5854240803e+00  7.5122460702e+00  1.0731780100e+01 
 4.2927120401e+00  1.3951314130e+01  0.0000000000e+00  0.0000000000e+00  0.0000000000e+00 
 0.0000000000e+00  1.0731780100e+00  0.0000000000e+00  2.1463560201e+00  8.5854240803e+00 
 9.6586020903e+00  3.2195340301e+00  3.2195340301e+00  0.0000000000e+00  0.0000000000e+00 
 0.0000000000e+00  0.0000000000e+00  2.1463560201e+00  0.0000000000e+00  1.1804958110e+01 
 1.8244026171e+01  1.2878136120e+01  5.3658900502e+00  1.2878136120e+01  1.9317204181e+01 
 6.4390680602e+00  1.0731780100e+00  1.0731780100e+00  1.0731780100e+00  0.0000000000e+00 
 0.0000000000e+00  0.0000000000e+00  6.4390680602e+00  3.2195340301e+00  1.0731780100e+00 
 1.0731780100e+00  0.0000000000e+00  0.0000000000e+00  0.0000000000e+00  0.0000000000e+00 
 5.3658900502e+00  8.5854240803e+00  2.7902628261e+01  2.4683094231e+01  6.4390680602e+00 
 2.1463560201e+00  1.5024492140e+01  1.5024492140e+01  8.5854240803e+00  7.5122460702e+00 
 4.2927120401e+00  1.0731780100e+00  0.0000000000e+00  0.0000000000e+00  1.0731780100e+00 
 5.3658900502e+00  6.4390680602e+00  2.1463560201e+00  0.0000000000e+00  0.0000000000e+00 
 0.0000000000e+00  0.0000000000e+00  3.2195340301e+00  1.3951314130e+01  9.6586020903e+00 
 1.6097670151e+01  1.8244026171e+01  1.2878136120e+01  5.3658900502e+00  8.5854240803e+00 
 1.2878136120e+01  1.2878136120e+01  8.5854240803e+00  1.0731780100e+00  1.0731780100e+00 
 0.0000000000e+00  0.0000000000e+00  0.0000000000e+00  8.5854240803e+00  9.6586020903e+00 
 7.5122460702e+00  2.1463560201e+00  0.0000000000e+00  0.0000000000e+00  2.1463560201e+00 
 2.1463560201e+00  4.2927120401e+00  8.5854240803e+00  1.6097670151e+01  1.5024492140e+01 
 9.6586020903e+00  0.0000000000e+00  1.0731780100e+00  3.2195340301e+00  3.2195340301e+00 
 3.2195340301e+00  1.0731780100e+00  0.0000000000e+00  0.0000000000e+00  0.0000000000e+00 
 0.0000000000e+00  1.0731780100e+00  6.4390680602e+00  8.5854240803e+00  2.1463560201e+00 
 2.1463560201e+00  0.0000000000e+00  5.3658900502e+00  9.6586020903e+00  1.1804958110e+01 
 9.6586020903e+00  1.5024492140e+01  8.5854240803e+00  2.1463560201e+00  1.0731780100e+00 
 0.0000000000e+00  1.0731780100e+00  1.0731780100e+00  0.0000000000e+00  0.0000000000e+00 
 0.0000000000e+00  1.0731780100e+00  0.0000000000e+00  1.0731780100e+00  1.0731780100e+00 
 2.1463560201e+00  9.6586020903e+00  4.2927120401e+00  5.3658900502e+00  4.2927120401e+00 
 3.2195340301e+00  1.2878136120e+01  9.6586020903e+00  7.5122460702e+00  9.6586020903e+00 
 5.3658900502e+00  1.0731780100e+00  2.1463560201e+00  0.0000000000e+00  1.0731780100e+00 
 1.0731780100e+00  3.2195340301e+00  1.0731780100e+00  3.2195340301e+00  0.0000000000e+00 
 3.2195340301e+00  0.0000000000e+00  1.0731780100e+00  7.5122460702e+00  1.1804958110e+01 
 5.3658900502e+00  3.2195340301e+00  6.4390680602e+00  2.1463560201e+00  6.4390680602e+00 
 2.1463560201e+00  1.0731780100e+00  7.5122460702e+00  9.6586020903e+00  4.2927120401e+00 
 2.1463560201e+00  1.0731780100e+00  7.5122460702e+00  2.1463560201e+00  2.1463560201e+00 
 2.1463560201e+00  4.2927120401e+00  4.2927120401e+00  4.2927120401e+00  1.0731780100e+00 
 4.2927120401e+00  0.0000000000e+00  0.0000000000e+00  0.0000000000e+00  3.2195340301e+00 
 1.0731780100e+00  1.0731780100e+00  1.3951314130e+01  9.6586020903e+00  5.3658900502e+00 
 5.3658900502e+00  2.1463560201e+00  5.3658900502e+00  3.2195340301e+00  6.4390680602e+00 
 9.6586020903e+00  6.4390680602e+00  1.0731780100e+01  2.1463560201e+00  5.3658900502e+00 
 1.6097670151e+01  1.3951314130e+01  1.3951314130e+01  1.0731780100e+00  0.0000000000e+00 
 0.0000000000e+00  0.0000000000e+00  0.0000000000e+00  0.0000000000e+00  3.2195340301e+00 
 6.4390680602e+00  7.5122460702e+00  4.2927120401e+00  5.3658900502e+00  2.1463560201e+00 
 1.3951314130e+01  1.5024492140e+01  9.6586020903e+00  6.4390680602e+00  0.0000000000e+00 
 0.0000000000e+00  6.4390680602e+00  6.4390680602e+00  1.5024492140e+01  1.3951314130e+01 
 2.0390382191e+01  1.0731780100e+00  0.0000000000e+00  0.0000000000e+00  2.1463560201e+00 
 3.2195340301e+00  3.2195340301e+00  1.0731780100e+01  1.0731780100e+00  2.1463560201e+00 
 1.0731780100e+00  3.2195340301e+00  3.2195340301e+00  1.2878136120e+01  1.7170848161e+01 
 1.2878136120e+01  1.0731780100e+01  7.5122460702e+00  0.0000000000e+00  7.5122460702e+00 
 8.5854240803e+00  6.4390680602e+00  1.1804958110e+01  8.5854240803e+00  1.0731780100e+00 
 2.1463560201e+00  1.5024492140e+01  3.2195340301e+00  2.1463560201e+01  3.2195340301e+00 
 3.2195340301e+00  0.0000000000e+00  0.0000000000e+00  0.0000000000e+00  0.0000000000e+00 
 0.0000000000e+00  4.2927120401e+00  8.5854240803e+00  7.5122460702e+00  2.1463560201e+01 
 1.7170848161e+01  0.0000000000e+00  3.2195340301e+00  1.0731780100e+01  9.6586020903e+00 
 9.6586020903e+00  1.0731780100e+01  1.0731780100e+00  3.2195340301e+00  1.2878136120e+01 
 2.1463560201e+01  2.3609916221e+01  4.2927120401e+00  2.1463560201e+00  2.1463560201e+00 
 0.0000000000e+00  0.0000000000e+00  0.0000000000e+00  0.0000000000e+00  0.0000000000e+00 
 2.1463560201e+00  9.6586020903e+00  3.2195340301e+00  1.0731780100e+00  4.2927120401e+00 
 6.4390680602e+00  1.7170848161e+01  9.6586020903e+00  1.0731780100e+01  5.3658900502e+00 
 3.2195340301e+00  3.2195340301e+00  1.0731780100e+01  1.8244026171e+01  2.3609916221e+01 
 6.4390680602e+00  1.0731780100e+00  0.0000000000e+00  0.0000000000e+00  0.0000000000e+00 
 0.0000000000e+00  0.0000000000e+00  2.1463560201e+00  1.0731780100e+00  4.2927120401e+00 
 0.0000000000e+00  3.2195340301e+00  3.2195340301e+00  8.5854240803e+00  1.2878136120e+01 
 6.4390680602e+00  6.4390680602e+00  1.0731780100e+00  8.5854240803e+00  3.2195340301e+00 
 5.3658900502e+00  1.5024492140e+01  7.5122460702e+00  4.2927120401e+00  2.1463560201e+00 
 2.1463560201e+00  0.0000000000e+00  1.0731780100e+00  1.0731780100e+00  1.0731780100e+00 
 0.0000000000e+00  7.5122460702e+00  3.2195340301e+00  1.0731780100e+00  4.2927120401e+00 
 4.2927120401e+00  6.4390680602e+00  3.2195340301e+00  1.0731780100e+00  7.5122460702e+00 
 5.3658900502e+00  4.2927120401e+00  1.0731780100e+00  2.1463560201e+00  1.8244026171e+01 
 1.7170848161e+01  1.0731780100e+00  2.1463560201e+00  4.2927120401e+00  2.1463560201e+00 
 1.0731780100e+00  0.0000000000e+00  0.0000000000e+00  3.2195340301e+00  3.2195340301e+00 
 5.3658900502e+00  0.0000000000e+00  2.1463560201e+00  1.0731780100e+00  1.0731780100e+00 
 3.2195340301e+00  1.1804958110e+01  1.0731780100e+01  1.2878136120e+01  7.5122460702e+00 
 3.2195340301e+00  2.2536738211e+01  3.2195340301e+01  1.1804958110e+01  3.2195340301e+00 
 8.5854240803e+00  5.3658900502e+00  1.0731780100e+00  3.2195340301e+00  4.2927120401e+00 
 3.2195340301e+00  2.1463560201e+00  1.1804958110e+01  1.6097670151e+01  1.6097670151e+01 
 5.3658900502e+00  5.3658900502e+00  7.5122460702e+00  1.9317204181e+01  3.0048984281e+01 
 1.0731780100e+01  1.5024492140e+01  3.2195340301e+00  6.4390680602e+00  2.0390382191e+01 
 2.4683094231e+01  3.0048984281e+01  3.2195340301e+00  5.3658900502e+00  4.2927120401e+00 
 2.1463560201e+00  6.4390680602e+00  0.0000000000e+00  0.0000000000e+00  1.0731780100e+00 
 4.2927120401e+00  8.5854240803e+00  6.4390680602e+00  4.2927120401e+00  9.6586020903e+00 
 5.2585722492e+01  6.8683392642e+01  5.2585722492e+01  1.6097670151e+01  9.6586020903e+00 
 3.2195340301e+00  7.5122460702e+00  1.9317204181e+01  2.0390382191e+01  2.5756272241e+01 
 1.1804958110e+01  3.2195340301e+00  2.1463560201e+00  1.0731780100e+00  3.2195340301e+00 
 5.3658900502e+00  5.3658900502e+00  3.2195340301e+00  3.2195340301e+00  1.0731780100e+00 
 3.2195340301e+00  9.6586020903e+00  2.5756272241e+01  4.9366188462e+01  5.6878434532e+01 
 4.9366188462e+01  2.2536738211e+01  7.5122460702e+00  1.2878136120e+01  4.2927120401e+00 
 2.5756272241e+01  3.6488052341e+01  2.8975806271e+01  3.2195340301e+00  3.2195340301e+00 
 0.0000000000e+00  1.0731780100e+00  1.2878136120e+01  2.8975806271e+01  9.6586020903e+00 
 1.0731780100e+00  1.0731780100e+00  0.0000000000e+00  2.1463560201e+00  7.5122460702e+00 
 1.1804958110e+01  2.0390382191e+01  1.9317204181e+01  1.5024492140e+01  3.2195340301e+00 
 4.2927120401e+00  8.5854240803e+00  1.7170848161e+01  4.4000298411e+01  2.4683094231e+01 
 8.5854240803e+00  6.4390680602e+00  0.0000000000e+00  1.0731780100e+00  0.0000000000e+00 
 1.0731780100e+01  3.4341696321e+01  4.2927120401e+00  4.2927120401e+00  5.3658900502e+00 
 0.0000000000e+00  1.0731780100e+00  0.0000000000e+00  1.0731780100e+00  9.6586020903e+00 
 9.6586020903e+00  3.2195340301e+00  1.0731780100e+00  0.0000000000e+00  5.3658900502e+00 
 2.1463560201e+01  2.3609916221e+01  2.1463560201e+01  4.2927120401e+00  2.1463560201e+00 
 0.0000000000e+00  0.0000000000e+00  1.0731780100e+00  1.0731780100e+00  4.2927120401e+00 
 4.2927120401e+00  1.0731780100e+00  2.1463560201e+00  0.0000000000e+00  0.0000000000e+00 
 0.0000000000e+00  0.0000000000e+00  0.0000000000e+00  0.0000000000e+00  0.0000000000e+00 
 1.0731780100e+00  1.0731780100e+00  2.8975806271e+01  3.6488052341e+01  1.9317204181e+01 
 7.5122460702e+00  1.0731780100e+00  0.0000000000e+00  0.0000000000e+00  0.0000000000e+00 
 0.0000000000e+00  1.0731780100e+00  2.1463560201e+00  6.4390680602e+00  1.7170848161e+01 
 8.5854240803e+00  2.1463560201e+00  3.2195340301e+00  0.0000000000e+00  0.0000000000e+00 
 0.0000000000e+00  0.0000000000e+00  0.0000000000e+00  0.0000000000e+00  0.0000000000e+00 
 3.7561230351e+01  2.6829450251e+01  1.0731780100e+01  0.0000000000e+00  0.0000000000e+00 
 0.0000000000e+00  0.0000000000e+00  0.0000000000e+00  0.0000000000e+00  0.0000000000e+00 
 5.3658900502e+00  2.3609916221e+01  1.0731780100e+01  9.6586020903e+00  1.0731780100e+00 
 5.3658900502e+00  7.5122460702e+00  1.0731780100e+00  0.0000000000e+00  0.0000000000e+00 
 0.0000000000e+00  0.0000000000e+00  0.0000000000e+00  6.4390680602e+00  1.0731780100e+01 
 2.1463560201e+00  0.0000000000e+00  0.0000000000e+00  0.0000000000e+00  0.0000000000e+00 
 0.0000000000e+00  0.0000000000e+00  3.2195340301e+00  2.7902628261e+01  1.9317204181e+01 
 1.0731780100e+01  7.5122460702e+00  4.2927120401e+00  2.1463560201e+00  7.5122460702e+00 
 2.0390382191e+01  5.3658900502e+00  0.0000000000e+00  0.0000000000e+00  0.0000000000e+00 
 0.0000000000e+00  7.5122460702e+00  1.0731780100e+00  1.0731780100e+00  0.0000000000e+00 
 0.0000000000e+00  0.0000000000e+00  0.0000000000e+00  6.4390680602e+00  5.3658900502e+00 
 2.1463560201e+00  2.1463560201e+01  3.1122162291e+01  1.0731780100e+01  2.1463560201e+00 
 4.2927120401e+00  4.2927120401e+00  1.1804958110e+01  1.7170848161e+01  2.1463560201e+00 
 2.1463560201e+00  0.0000000000e+00  0.0000000000e+00  0.0000000000e+00  5.3658900502e+00 
 3.2195340301e+00  4.2927120401e+00  1.0731780100e+00  1.0731780100e+00  0.0000000000e+00 
 2.1463560201e+00  6.4390680602e+00  6.4390680602e+00  8.5854240803e+00  2.2536738211e+01 
 3.4341696321e+01  9.6586020903e+00  0.0000000000e+00  1.0731780100e+00  8.5854240803e+00 
 1.0731780100e+01  1.0731780100e+01  5.3658900502e+00  0.0000000000e+00  0.0000000000e+00 
 0.0000000000e+00  0.0000000000e+00  2.1463560201e+00  4.2927120401e+00  6.4390680602e+00 
 1.0731780100e+01  9.6586020903e+00  1.0731780100e+00  3.2195340301e+00  1.0731780100e+01 
 1.3951314130e+01  9.6586020903e+00  9.6586020903e+00  9.6586020903e+00  3.2195340301e+00 
 0.0000000000e+00  0.0000000000e+00  0.0000000000e+00  1.0731780100e+00  6.4390680602e+00 
 4.2927120401e+00  4.2927120401e+00  2.1463560201e+00  1.0731780100e+00  1.0731780100e+00 
 5.3658900502e+00  0.0000000000e+00  2.0390382191e+01  4.2927120401e+00  2.1463560201e+00 
 3.2195340301e+00  2.1463560201e+00  1.0731780100e+01  6.4390680602e+00  2.1463560201e+00 
 6.4390680602e+00  3.2195340301e+00  1.0731780100e+00  1.0731780100e+00  1.0731780100e+00 
 2.1463560201e+00  8.5854240803e+00  1.8244026171e+01  1.2878136120e+01  8.5854240803e+00 
 1.0731780100e+00  0.0000000000e+00  1.0731780100e+00  1.0731780100e+00  4.2927120401e+00 
 6.4390680602e+00  1.0731780100e+00  1.0731780100e+00  2.1463560201e+00  0.0000000000e+00 
 3.2195340301e+00  6.4390680602e+00  6.4390680602e+00  2.1463560201e+00  4.2927120401e+00 
 5.3658900502e+00  1.0731780100e+00  2.1463560201e+00  1.2878136120e+01  1.5024492140e+01 
 1.5024492140e+01  2.1463560201e+00  5.3658900502e+00  1.0731780100e+00  1.0731780100e+00 
 0.0000000000e+00  0.0000000000e+00  0.0000000000e+00  0.0000000000e+00  0.0000000000e+00 
 1.0731780100e+00  2.1463560201e+00  0.0000000000e+00  7.5122460702e+00  1.0731780100e+00 
 2.1463560201e+00  1.0731780100e+00  0.0000000000e+00  0.0000000000e+00  5.3658900502e+00 
 9.6586020903e+00  2.7902628261e+01  3.2195340301e+01  2.3609916221e+01  8.5854240803e+00 
 7.5122460702e+00  1.8244026171e+01  5.3658900502e+00  0.0000000000e+00  0.0000000000e+00 
 0.0000000000e+00  0.0000000000e+00  1.0731780100e+00  2.1463560201e+00  1.0731780100e+00 
 0.0000000000e+00  7.5122460702e+00  1.1804958110e+01  1.3951314130e+01  1.0731780100e+00 
 7.5122460702e+00  1.0731780100e+01  1.1804958110e+01  2.2536738211e+01  1.6097670151e+01 
 6.4390680602e+00  2.1463560201e+00  1.7170848161e+01  6.4390680602e+00  2.5756272241e+01 
 1.0731780100e+01  5.3658900502e+00  2.1463560201e+00  1.0731780100e+00  0.0000000000e+00 
 2.1463560201e+00  1.0731780100e+00  0.0000000000e+00  2.1463560201e+00  3.2195340301e+00 
 1.0731780100e+00  4.2927120401e+00  2.1463560201e+00  8.5854240803e+00  1.7170848161e+01 
 9.6586020903e+00  1.2878136120e+01  2.8975806271e+01  2.2536738211e+01  4.2927120401e+00 
 3.2195340301e+00  6.4390680602e+00  3.3268518311e+01  2.1463560201e+01  1.1804958110e+01 
 5.3658900502e+00  1.2878136120e+01  1.1804958110e+01  1.1804958110e+01  4.2927120401e+00 
 7.5122460702e+00  2.1463560201e+00  1.0731780100e+00  1.0731780100e+00  0.0000000000e+00 
 0.0000000000e+00  0.0000000000e+00  8.5854240803e+00  4.2927120401e+00  1.3951314130e+01 
 2.6829450251e+01  7.5122460702e+00  6.4390680602e+00  9.6586020903e+00  1.8244026171e+01 
 6.0097968562e+01  4.2927120401e+01  1.1804958110e+01  1.0731780100e+00  3.2195340301e+00 
 1.6097670151e+01  2.4683094231e+01  1.8244026171e+01  6.4390680602e+00  1.0731780100e+00 
 0.0000000000e+00  0.0000000000e+00  0.0000000000e+00  0.0000000000e+00  0.0000000000e+00 
 1.0731780100e+00  3.2195340301e+00  5.3658900502e+00  4.2927120401e+00  0.0000000000e+00 
 0.0000000000e+00  8.5854240803e+00  2.2536738211e+01  1.9317204181e+01  2.4683094231e+01 
 1.5024492140e+01  1.0731780100e+00  0.0000000000e+00  8.5854240803e+00  2.5756272241e+01 
 1.8244026171e+01  2.1463560201e+00  0.0000000000e+00  0.0000000000e+00  0.0000000000e+00 
 0.0000000000e+00  0.0000000000e+00  0.0000000000e+00  0.0000000000e+00  2.1463560201e+00 
 1.1804958110e+01  2.1463560201e+00  2.1463560201e+00  0.0000000000e+00  1.2878136120e+01 
 1.1804958110e+01  1.8244026171e+01  1.9317204181e+01  5.3658900502e+00  5.3658900502e+00 
 0.0000000000e+00  0.0000000000e+00  8.5854240803e+00  1.3951314130e+01  6.4390680602e+00 
 3.2195340301e+00  3.2195340301e+00  2.1463560201e+00  0.0000000000e+00  0.0000000000e+00 
 3.2195340301e+00  7.5122460702e+00  1.1804958110e+01  2.5756272241e+01  1.2878136120e+01 
 1.0731780100e+01  5.3658900502e+00  6.4390680602e+00  8.5854240803e+00  5.3658900502e+00 
 1.0731780100e+01  8.5854240803e+00  2.1463560201e+00  7.5122460702e+00  6.4390680602e+00 
 1.6097670151e+01  2.2536738211e+01  0.0000000000e+00  4.2927120401e+00  8.5854240803e+00 
 3.2195340301e+00  1.0731780100e+01  0.0000000000e+00  0.0000000000e+00  6.4390680602e+00 
 2.1463560201e+01  6.3317502592e+01  3.4341696321e+01  4.2927120401e+00  4.2927120401e+00 
 1.0731780100e+00  6.4390680602e+00  2.0390382191e+01  2.1463560201e+00  2.1463560201e+00 
 1.0731780100e+00  5.3658900502e+00  1.2878136120e+01  3.8634408361e+01  2.3609916221e+01 
 4.2927120401e+00  1.3951314130e+01  9.6586020903e+00  1.1804958110e+01  9.6586020903e+00 
 4.2927120401e+00  0.0000000000e+00  1.0731780100e+00  1.8244026171e+01  2.7902628261e+01 
 1.2878136120e+01  8.5854240803e+00  7.5122460702e+00  9.6586020903e+00  1.7170848161e+01 
 2.1463560201e+01  4.2927120401e+00  1.0731780100e+00  0.0000000000e+00  9.6586020903e+00 
 1.7170848161e+01  9.6586020903e+00  2.0390382191e+01  1.5024492140e+01  9.6586020903e+00 
 2.0390382191e+01  1.0731780100e+01  2.1463560201e+00  0.0000000000e+00  1.0731780100e+00 
 5.3658900502e+00  3.2195340301e+00  5.3658900502e+00  3.2195340301e+00  1.0731780100e+00 
 9.6586020903e+00  3.0048984281e+01  5.5805256522e+01  3.0048984281e+01  2.1463560201e+00 
 1.0731780100e+00  1.0731780100e+00  3.2195340301e+00  7.5122460702e+00  1.5024492140e+01 
 2.1463560201e+01  7.5122460702e+00  6.4390680602e+00  4.2927120401e+00  3.2195340301e+00 
 4.2927120401e+00  0.0000000000e+00  2.1463560201e+00  0.0000000000e+00  0.0000000000e+00 
 0.0000000000e+00  0.0000000000e+00  5.3658900502e+00  1.2878136120e+01  2.5756272241e+01 
 5.3658900502e+01  1.7170848161e+01  4.2927120401e+00  3.2195340301e+00  2.1463560201e+00 
 4.2927120401e+00  1.2878136120e+01  1.1804958110e+01  2.1463560201e+01  1.0731780100e+01 
 9.6586020903e+00  7.5122460702e+00  2.1463560201e+00  7.5122460702e+00  3.2195340301e+00 
 4.2927120401e+00  0.0000000000e+00  0.0000000000e+00  0.0000000000e+00  0.0000000000e+00 
 9.6586020903e+00  2.1463560201e+00  6.4390680602e+00  4.2927120401e+00  6.4390680602e+00 
 3.2195340301e+00  2.5756272241e+01  9.6586020903e+00  3.8634408361e+01  2.5756272241e+01 
 1.9317204181e+01  1.2878136120e+01  5.3658900502e+00  0.0000000000e+00  2.1463560201e+00 
 1.0731780100e+00  5.3658900502e+00  1.0731780100e+01  3.2195340301e+00  1.0731780100e+00 
 0.0000000000e+00  0.0000000000e+00  0.0000000000e+00  1.0731780100e+00  0.0000000000e+00 
 3.2195340301e+00  1.0731780100e+00  0.0000000000e+00  5.3658900502e+00  0.0000000000e+00 
 0.0000000000e+00  3.3268518311e+01  3.4341696321e+01  2.1463560201e+01  6.4390680602e+00 
 0.0000000000e+00  0.0000000000e+00  0.0000000000e+00  3.2195340301e+00  1.1804958110e+01 
 6.4390680602e+00  5.3658900502e+00  3.2195340301e+00  1.0731780100e+00  0.0000000000e+00 
 0.0000000000e+00  0.0000000000e+00  0.0000000000e+00  2.1463560201e+00  1.0731780100e+00 
 0.0000000000e+00  3.2195340301e+00  5.3658900502e+00  7.5122460702e+00  3.0048984281e+01 
 3.6488052341e+01  1.1804958110e+01  6.4390680602e+00  1.0731780100e+00  0.0000000000e+00 
 0.0000000000e+00  4.2927120401e+00  1.1804958110e+01  1.0731780100e+01  7.5122460702e+00 
 9.6586020903e+00  0.0000000000e+00  0.0000000000e+00  0.0000000000e+00  0.0000000000e+00 
 0.0000000000e+00  1.0731780100e+00  2.1463560201e+00  0.0000000000e+00  0.0000000000e+00 
 7.5122460702e+00  1.8244026171e+01  3.5414874331e+01  8.5854240803e+00  0.0000000000e+00 
 0.0000000000e+00  0.0000000000e+00  0.0000000000e+00  0.0000000000e+00  3.2195340301e+00 
 7.5122460702e+00  1.7170848161e+01  1.9317204181e+01  7.5122460702e+00  1.0731780100e+00 
 0.0000000000e+00  0.0000000000e+00  0.0000000000e+00  0.0000000000e+00  0.0000000000e+00 
 0.0000000000e+00  0.0000000000e+00  0.0000000000e+00  1.0731780100e+00  1.7170848161e+01 
 2.3609916221e+01  2.1463560201e+00  0.0000000000e+00  0.0000000000e+00  0.0000000000e+00 
 0.0000000000e+00  0.0000000000e+00  1.0731780100e+00  6.4390680602e+00  3.0048984281e+01 
 3.1122162291e+01  6.4390680602e+00  3.2195340301e+00  0.0000000000e+00  2.1463560201e+00 
 2.1463560201e+00  2.1463560201e+00  1.0731780100e+00  0.0000000000e+00  0.0000000000e+00 
 0.0000000000e+00  0.0000000000e+00  4.2927120401e+00  7.5122460702e+00  4.2927120401e+00 
 1.0731780100e+00  0.0000000000e+00  0.0000000000e+00  0.0000000000e+00  1.0731780100e+00 
 3.2195340301e+00  9.6586020903e+00  3.6488052341e+01  2.5756272241e+01  1.2878136120e+01 
 4.2927120401e+00  3.2195340301e+00  7.5122460702e+00  9.6586020903e+00  1.0731780100e+00 
 3.2195340301e+00  0.0000000000e+00  0.0000000000e+00  0.0000000000e+00  0.0000000000e+00 
 1.0731780100e+00  3.2195340301e+00  1.1804958110e+01  8.5854240803e+00  2.1463560201e+00 
 1.0731780100e+00  8.5854240803e+00  1.2878136120e+01  1.3951314130e+01  4.2927120401e+00 
 1.7170848161e+01  1.6097670151e+01  9.6586020903e+00  0.0000000000e+00  7.5122460702e+00 
 1.8244026171e+01  7.5122460702e+00  7.5122460702e+00  3.2195340301e+00  0.0000000000e+00 
 0.0000000000e+00  0.0000000000e+00  0.0000000000e+00  0.0000000000e+00  1.1804958110e+01 
 2.2536738211e+01  2.2536738211e+01  2.8975806271e+01  1.3951314130e+01  1.6097670151e+01 
 1.9317204181e+01  1.8244026171e+01  0.0000000000e+00  5.3658900502e+00  2.1463560201e+00 
 0.0000000000e+00  2.1463560201e+00  4.2927120401e+00  2.1463560201e+00  6.4390680602e+00 
 1.3951314130e+01  1.0731780100e+01  1.0731780100e+00  5.3658900502e+00  0.0000000000e+00 
 0.0000000000e+00  0.0000000000e+00  4.2927120401e+00  1.7170848161e+01  3.5414874331e+01 
 5.7951612542e+01  2.7902628261e+01  1.3951314130e+01  6.4390680602e+00  6.4390680602e+00 
 0.0000000000e+00  1.0731780100e+00  1.0731780100e+00  0.0000000000e+00  0.0000000000e+00 
 1.0731780100e+00  3.2195340301e+00  5.3658900502e+00  2.0390382191e+01  1.2878136120e+01 
 1.5024492140e+01  5.3658900502e+00  3.2195340301e+00  0.0000000000e+00  0.0000000000e+00 
 2.1463560201e+00  5.3658900502e+00  1.5024492140e+01  2.0390382191e+01  1.1804958110e+01 
 1.0731780100e+00  3.2195340301e+00  4.2927120401e+00  1.0731780100e+00  0.0000000000e+00 
 0.0000000000e+00  0.0000000000e+00  0.0000000000e+00  1.0731780100e+00  5.3658900502e+00 
 9.6586020903e+00  1.3951314130e+01  5.3658900502e+00  4.2927120401e+00  0.0000000000e+00 
 0.0000000000e+00  0.0000000000e+00  2.1463560201e+00  0.0000000000e+00  1.0731780100e+00 
 2.1463560201e+00  0.0000000000e+00  1.0731780100e+00  1.0731780100e+00  2.1463560201e+00 
 3.2195340301e+00  2.1463560201e+00  1.0731780100e+00  0.0000000000e+00  0.0000000000e+00 
 4.2927120401e+00  7.5122460702e+00  1.0731780100e+01  1.0731780100e+01  2.7902628261e+01 
 2.0390382191e+01  3.2195340301e+00  4.2927120401e+00  0.0000000000e+00  0.0000000000e+00 
 0.0000000000e+00  0.0000000000e+00  1.0731780100e+00  0.0000000000e+00  0.0000000000e+00 
 1.0731780100e+00  1.0731780100e+00  0.0000000000e+00  7.5122460702e+00  1.3951314130e+01 
 0.0000000000e+00  0.0000000000e+00  2.1463560201e+00  6.4390680602e+00  1.0731780100e+01 
 1.5024492140e+01  1.5024492140e+01  2.0390382191e+01  2.4683094231e+01  1.9317204181e+01 
 1.5024492140e+01  5.3658900502e+00  2.1463560201e+00  3.2195340301e+00  0.0000000000e+00 
 0.0000000000e+00  0.0000000000e+00  2.1463560201e+00  0.0000000000e+00  0.0000000000e+00 
 1.0731780100e+00  5.3658900502e+00  6.4390680602e+00  0.0000000000e+00  0.0000000000e+00 
 2.1463560201e+00  4.2927120401e+00  6.4390680602e+00  7.5122460702e+00  8.5854240803e+00 
 1.1804958110e+01  5.3658900502e+00  1.3951314130e+01  2.0390382191e+01  3.3268518311e+01 
 1.7170848161e+01  7.5122460702e+00  8.5854240803e+00  1.1804958110e+01  1.5024492140e+01 
 6.4390680602e+00  0.0000000000e+00  2.1463560201e+00  2.1463560201e+00  2.1463560201e+00 
 1.0731780100e+00  1.0731780100e+00  0.0000000000e+00  0.0000000000e+00  7.5122460702e+00 
 1.8244026171e+01  5.3658900502e+00  4.2927120401e+00  1.0731780100e+00  1.0731780100e+01 
 1.6097670151e+01  3.4341696321e+01  4.5073476421e+01  2.0390382191e+01  1.1804958110e+01 
 9.6586020903e+00  9.6586020903e+00  1.8244026171e+01  2.3609916221e+01  5.3658900502e+00 
 1.0731780100e+00  0.0000000000e+00  0.0000000000e+00  0.0000000000e+00  0.0000000000e+00 
 0.0000000000e+00  0.0000000000e+00  9.6586020903e+00  2.4683094231e+01  6.4390680602e+00 
 3.2195340301e+00  1.0731780100e+00  5.3658900502e+00  1.3951314130e+01  4.1853942391e+01 
 4.0780764381e+01  8.5854240803e+00  4.2927120401e+00  3.2195340301e+00  1.0731780100e+00 
 1.3951314130e+01  1.2878136120e+01  0.0000000000e+00  0.0000000000e+00  1.0731780100e+00 
 0.0000000000e+00  0.0000000000e+00  0.0000000000e+00  2.1463560201e+00  6.4390680602e+00 