Li24 P4 S20 Cl4
 1.00 
 10.096492 0.0 0.003316 
 0.003318 10.096492 -0.003316 
 0.0 0.0 10.096493 
 Li P S Cl
 24 4 20 4
direct
 0.20526700  0.85082500  0.51919200 
 0.54116400  0.28266600  0.39869400 
 0.77788700  0.06472700  0.41938800 
 0.70758700  0.94109900  0.87972400 
 0.63956600  0.23616600  0.06666000 
 0.44522100  0.10880900  0.76760000 
 0.09484100  0.71537200  0.11870600 
 0.33657800  0.83245200  0.85756500 
 0.04007700  0.21057200  0.29545500 
 0.79870000  0.59439500  0.84159100 
 0.88824900  0.01357000  0.68378700 
 0.80045500  0.48910400  0.18358300 
 0.54563500  0.85028300  0.09772100 
 0.04605500  0.63181600  0.84368100 
 0.30413300  0.15010100  0.03768000 
 0.26723800  0.50027600  0.30869200 
 0.21597700  0.41132000  0.01842500 
 0.14905800  0.16921800  0.57723000 
 0.35335000  0.43165800  0.64570300 
 0.74978200  0.42831100  0.47638500 
 0.97104700  0.32009700  0.90621300 
 0.97295000  0.84116600  0.32039200 
 0.53065400  0.10144500  0.22434900 
 0.57503300  0.74015700  0.51026300 
 0.98727600  0.98509600  0.00803200 
 0.05249300  0.49612400  0.55051900 
 0.48243800  0.01612800  0.50740400 
 0.50397400  0.47729500  0.99527400 
 0.11342500  0.09580800  0.11634000 
 0.18824900  0.61390800  0.64910400 
 0.61623500  0.14787100  0.60041100 
 0.62791800  0.61943300  0.08767800 
 0.89138400  0.84389500  0.09194700 
 0.91349700  0.40632200  0.67065400 
 0.40770800  0.88582600  0.63214000 
 0.43108900  0.36852200  0.13963700 
 0.86778400  0.10861300  0.90256600 
 0.92899300  0.60161200  0.40231600 
 0.36049100  0.13692000  0.38363200 
 0.34918600  0.59300300  0.89904500 
 0.09889600  0.86305000  0.88711700 
 0.17626600  0.36653300  0.44826600 
 0.59798700  0.90497300  0.36379500 
 0.62142000  0.38337700  0.85869100 
 0.71534500  0.24515900  0.26362800 
 0.01190000  0.02514300  0.46532600 
 0.99492300  0.49750800  0.05273700 
 0.52144900  0.04087300  0.98915300 
 0.20753200  0.25220900  0.81666100 
 0.77417800  0.77544500  0.68965300 
 0.25763100  0.77312300  0.29917000 
 0.51371800  0.50340100  0.46340200 
 
 21 21 21 
 0.0000000000e+00  0.0000000000e+00  0.0000000000e+00  0.0000000000e+00  0.0000000000e+00 
 1.0416054446e+00  1.0416054446e+01  1.0416054446e+00  0.0000000000e+00  0.0000000000e+00 
 0.0000000000e+00  0.0000000000e+00  0.0000000000e+00  0.0000000000e+00  9.3744490015e+00 
 8.3328435569e+00  0.0000000000e+00  0.0000000000e+00  0.0000000000e+00  0.0000000000e+00 
 0.0000000000e+00  0.0000000000e+00  0.0000000000e+00  0.0000000000e+00  0.0000000000e+00 
 0.0000000000e+00  1.0416054446e+00  8.3328435569e+00  2.0832108892e+00  0.0000000000e+00 
 0.0000000000e+00  0.0000000000e+00  0.0000000000e+00  0.0000000000e+00  0.0000000000e+00 
 3.1248163338e+00  7.2912381123e+00  1.0416054446e+00  0.0000000000e+00  0.0000000000e+00 
 0.0000000000e+00  0.0000000000e+00  0.0000000000e+00  0.0000000000e+00  0.0000000000e+00 
 0.0000000000e+00  0.0000000000e+00  2.0832108892e+00  1.4582476225e+01  1.1457659891e+01 
 2.0832108892e+00  0.0000000000e+00  0.0000000000e+00  0.0000000000e+00  0.0000000000e+00 
 1.0416054446e+00  1.6665687114e+01  1.2499265335e+01  2.0832108892e+00  0.0000000000e+00 
 0.0000000000e+00  0.0000000000e+00  0.0000000000e+00  0.0000000000e+00  0.0000000000e+00 
 0.0000000000e+00  0.0000000000e+00  0.0000000000e+00  2.0832108892e+00  1.9790503448e+01 
 3.9581006895e+01  9.3744490015e+00  0.0000000000e+00  0.0000000000e+00  0.0000000000e+00 
 0.0000000000e+00  1.0416054446e+01  5.7288299454e+01  2.3956925226e+01  0.0000000000e+00 
 0.0000000000e+00  0.0000000000e+00  0.0000000000e+00  0.0000000000e+00  0.0000000000e+00 
 0.0000000000e+00  0.0000000000e+00  0.0000000000e+00  1.0416054446e+00  3.1248163338e+00 
 1.9790503448e+01  2.4998530671e+01  7.2912381123e+00  4.1664217784e+00  4.1664217784e+00 
 7.2912381123e+00  1.2499265335e+01  2.7081741560e+01  6.0413115788e+01  2.3956925226e+01 
 1.0416054446e+00  0.0000000000e+00  1.0416054446e+00  0.0000000000e+00  0.0000000000e+00 
 0.0000000000e+00  3.1248163338e+00  4.1664217784e+00  1.1457659891e+01  7.2912381123e+00 
 7.2912381123e+00  8.3328435569e+00  4.1664217784e+00  1.0416054446e+00  1.0416054446e+00 
 1.0416054446e+00  5.2080272231e+00  2.0832108892e+00  1.0416054446e+01  1.2499265335e+01 
 7.2912381123e+00  8.3328435569e+00  8.3328435569e+00  4.1664217784e+00  8.3328435569e+00 
 3.1248163338e+00  1.0416054446e+00  7.2912381123e+00  1.2499265335e+01  4.4789034118e+01 
 8.2286830124e+01  2.2915319781e+01  0.0000000000e+00  0.0000000000e+00  0.0000000000e+00 
 0.0000000000e+00  0.0000000000e+00  0.0000000000e+00  0.0000000000e+00  0.0000000000e+00 
 1.0416054446e+00  8.3328435569e+00  4.8955455897e+01  6.4579537566e+01  2.8123347005e+01 
 1.1457659891e+01  6.2496326677e+00  0.0000000000e+00  0.0000000000e+00  4.1664217784e+00 
 3.5414585117e+01  5.1038666786e+01  1.3540870780e+01  0.0000000000e+00  0.0000000000e+00 
 0.0000000000e+00  0.0000000000e+00  0.0000000000e+00  0.0000000000e+00  0.0000000000e+00 
 0.0000000000e+00  0.0000000000e+00  7.2912381123e+00  3.9581006895e+01  5.2080272231e+01 
 7.2912381123e+00  1.0416054446e+00  0.0000000000e+00  0.0000000000e+00  0.0000000000e+00 
 0.0000000000e+00  6.2496326677e+00  2.8123347005e+01  6.2496326677e+00  1.0416054446e+00 
 0.0000000000e+00  0.0000000000e+00  0.0000000000e+00  0.0000000000e+00  0.0000000000e+00 
 0.0000000000e+00  0.0000000000e+00  0.0000000000e+00  2.0832108892e+00  1.7707292558e+01 
 1.1457659891e+01  2.0832108892e+00  0.0000000000e+00  0.0000000000e+00  0.0000000000e+00 
 0.0000000000e+00  0.0000000000e+00  0.0000000000e+00  5.2080272231e+00  6.2496326677e+00 
 0.0000000000e+00  0.0000000000e+00  0.0000000000e+00  0.0000000000e+00  0.0000000000e+00 
 0.0000000000e+00  0.0000000000e+00  0.0000000000e+00  0.0000000000e+00  1.0416054446e+00 
 8.3328435569e+00  1.0416054446e+00  0.0000000000e+00  0.0000000000e+00  0.0000000000e+00 
 0.0000000000e+00  0.0000000000e+00  0.0000000000e+00  0.0000000000e+00  2.0832108892e+00 
 5.2080272231e+00  0.0000000000e+00  0.0000000000e+00  0.0000000000e+00  0.0000000000e+00 
 0.0000000000e+00  0.0000000000e+00  0.0000000000e+00  0.0000000000e+00  0.0000000000e+00 
 0.0000000000e+00  2.0832108892e+00  2.0832108892e+00  0.0000000000e+00  0.0000000000e+00 
 0.0000000000e+00  0.0000000000e+00  0.0000000000e+00  0.0000000000e+00  0.0000000000e+00 
 4.1664217784e+00  1.0416054446e+00  0.0000000000e+00  0.0000000000e+00  0.0000000000e+00 
 0.0000000000e+00  0.0000000000e+00  0.0000000000e+00  0.0000000000e+00  0.0000000000e+00 
 0.0000000000e+00  0.0000000000e+00  2.0832108892e+00  0.0000000000e+00  0.0000000000e+00 
 0.0000000000e+00  0.0000000000e+00  0.0000000000e+00  0.0000000000e+00  0.0000000000e+00 
 5.2080272231e+00  1.4582476225e+01  1.0416054446e+00  0.0000000000e+00  0.0000000000e+00 
 0.0000000000e+00  0.0000000000e+00  0.0000000000e+00  0.0000000000e+00  0.0000000000e+00 
 0.0000000000e+00  0.0000000000e+00  2.0832108892e+00  1.2499265335e+01  4.1664217784e+00 
 0.0000000000e+00  0.0000000000e+00  0.0000000000e+00  0.0000000000e+00  4.1664217784e+00 
 3.1248163338e+00  2.3956925226e+01  4.1664217784e+01  5.2080272231e+00  0.0000000000e+00 
 0.0000000000e+00  0.0000000000e+00  0.0000000000e+00  0.0000000000e+00  0.0000000000e+00 
 0.0000000000e+00  0.0000000000e+00  0.0000000000e+00  2.0832108892e+00  3.7497796006e+01 
 3.7497796006e+01  3.1248163338e+00  1.0416054446e+00  1.0416054446e+00  2.0832108892e+00 
 8.3328435569e+00  3.5414585117e+01  5.7288299454e+01  4.8955455897e+01  4.1664217784e+00 
 0.0000000000e+00  0.0000000000e+00  2.0832108892e+00  0.0000000000e+00  0.0000000000e+00 
 0.0000000000e+00  0.0000000000e+00  0.0000000000e+00  0.0000000000e+00  3.1248163338e+00 
 4.8955455897e+01  5.9371510343e+01  2.6040136115e+01  1.1457659891e+01  2.0832108892e+00 
 0.0000000000e+00  9.3744490015e+00  1.3540870780e+01  1.1457659891e+01  8.3328435569e+00 
 1.0416054446e+00  1.0416054446e+00  1.0416054446e+00  1.0416054446e+01  0.0000000000e+00 
 2.0832108892e+00  2.0832108892e+00  3.1248163338e+00  5.2080272231e+00  1.0416054446e+00 
 7.2912381123e+00  1.6665687114e+01  1.0416054446e+01  8.3328435569e+00  1.0416054446e+01 
 0.0000000000e+00  0.0000000000e+00  0.0000000000e+00  0.0000000000e+00  0.0000000000e+00 
 0.0000000000e+00  0.0000000000e+00  9.3744490015e+00  2.1873714337e+01  5.2080272231e+00 
 4.1664217784e+00  7.2912381123e+00  2.0832108892e+00  1.6665687114e+01  8.3328435569e+00 
 3.2289768783e+01  8.3328435569e+00  0.0000000000e+00  0.0000000000e+00  0.0000000000e+00 
 0.0000000000e+00  0.0000000000e+00  0.0000000000e+00  0.0000000000e+00  0.0000000000e+00 
 0.0000000000e+00  0.0000000000e+00  3.1248163338e+00  1.6665687114e+01  3.5414585117e+01 
 6.2496326677e+00  2.0832108892e+00  2.0832108892e+00  0.0000000000e+00  1.0416054446e+00 
 9.3744490015e+00  3.9581006895e+01  1.0416054446e+01  0.0000000000e+00  0.0000000000e+00 
 0.0000000000e+00  0.0000000000e+00  0.0000000000e+00  0.0000000000e+00  0.0000000000e+00 
 0.0000000000e+00  0.0000000000e+00  0.0000000000e+00  2.0832108892e+00  3.0206557894e+01 
 1.0416054446e+01  0.0000000000e+00  0.0000000000e+00  0.0000000000e+00  0.0000000000e+00 
 0.0000000000e+00  0.0000000000e+00  1.1457659891e+01  5.2080272231e+00  2.0832108892e+00 
 0.0000000000e+00  0.0000000000e+00  0.0000000000e+00  0.0000000000e+00  0.0000000000e+00 
 0.0000000000e+00  0.0000000000e+00  0.0000000000e+00  0.0000000000e+00  4.1664217784e+00 
 2.3956925226e+01  9.3744490015e+00  0.0000000000e+00  0.0000000000e+00  0.0000000000e+00 
 0.0000000000e+00  0.0000000000e+00  0.0000000000e+00  5.2080272231e+00  5.2080272231e+00 
 0.0000000000e+00  0.0000000000e+00  0.0000000000e+00  0.0000000000e+00  0.0000000000e+00 
 0.0000000000e+00  0.0000000000e+00  0.0000000000e+00  0.0000000000e+00  0.0000000000e+00 
 1.0416054446e+00  1.9790503448e+01  1.0416054446e+00  0.0000000000e+00  0.0000000000e+00 
 0.0000000000e+00  0.0000000000e+00  0.0000000000e+00  0.0000000000e+00  2.0832108892e+00 
 6.2496326677e+00  1.0416054446e+00  0.0000000000e+00  0.0000000000e+00  0.0000000000e+00 
 0.0000000000e+00  0.0000000000e+00  0.0000000000e+00  0.0000000000e+00  0.0000000000e+00 
 0.0000000000e+00  7.2912381123e+00  1.6665687114e+01  3.1248163338e+00  0.0000000000e+00 
 0.0000000000e+00  0.0000000000e+00  0.0000000000e+00  0.0000000000e+00  0.0000000000e+00 
 4.1664217784e+00  9.3744490015e+00  1.0416054446e+00  0.0000000000e+00  0.0000000000e+00 
 0.0000000000e+00  0.0000000000e+00  0.0000000000e+00  0.0000000000e+00  0.0000000000e+00 
 0.0000000000e+00  0.0000000000e+00  5.2080272231e+00  1.0416054446e+01  6.2496326677e+00 
 0.0000000000e+00  0.0000000000e+00  0.0000000000e+00  0.0000000000e+00  0.0000000000e+00 
 0.0000000000e+00  1.7707292558e+01  5.7288299454e+01  4.1664217784e+00  1.0416054446e+00 
 0.0000000000e+00  0.0000000000e+00  0.0000000000e+00  0.0000000000e+00  0.0000000000e+00 
 0.0000000000e+00  0.0000000000e+00  0.0000000000e+00  0.0000000000e+00  6.2496326677e+00 
 1.4582476225e+01  1.0416054446e+00  0.0000000000e+00  0.0000000000e+00  0.0000000000e+00 
 0.0000000000e+00  2.0832108892e+00  4.4789034118e+01  7.1870775678e+01  2.2915319781e+01 
 0.0000000000e+00  0.0000000000e+00  0.0000000000e+00  0.0000000000e+00  0.0000000000e+00 
 0.0000000000e+00  0.0000000000e+00  0.0000000000e+00  0.0000000000e+00  0.0000000000e+00 
 1.2499265335e+01  2.9164952449e+01  1.0416054446e+01  3.1248163338e+00  0.0000000000e+00 
 0.0000000000e+00  4.1664217784e+00  2.2915319781e+01  1.2499265335e+02  9.9994122683e+01 
 6.2496326677e+00  0.0000000000e+00  0.0000000000e+00  0.0000000000e+00  0.0000000000e+00 
 0.0000000000e+00  0.0000000000e+00  0.0000000000e+00  0.0000000000e+00  0.0000000000e+00 
 0.0000000000e+00  1.0416054446e+01  1.5624081669e+01  4.1664217784e+00  2.0832108892e+00 
 3.1248163338e+00  5.2080272231e+00  3.1248163338e+01  6.9787564789e+01  1.0520214991e+02 
 4.4789034118e+01  6.2496326677e+00  2.0832108892e+00  2.0832108892e+00  2.0832108892e+00 
 0.0000000000e+00  0.0000000000e+00  0.0000000000e+00  0.0000000000e+00  4.1664217784e+00 
 0.0000000000e+00  5.2080272231e+00  3.1248163338e+00  0.0000000000e+00  3.1248163338e+00 
 0.0000000000e+00  3.1248163338e+00  1.7707292558e+01  5.5205088564e+01  3.9581006895e+01 
 2.3956925226e+01  1.7707292558e+01  1.7707292558e+01  1.5624081669e+01  3.4372979672e+01 
 4.7913850452e+01  1.0416054446e+01  5.2080272231e+00  2.0832108892e+00  7.2912381123e+00 
 2.3956925226e+01  3.1248163338e+01  8.3328435569e+00  0.0000000000e+00  0.0000000000e+00 
 0.0000000000e+00  0.0000000000e+00  0.0000000000e+00  0.0000000000e+00  4.1664217784e+00 
 3.1248163338e+00  3.1248163338e+00  1.6665687114e+01  5.2080272231e+01  8.0203619235e+01 
 8.4370041014e+01  5.3121877675e+01  9.3744490015e+00  0.0000000000e+00  2.0832108892e+00 
 5.2080272231e+00  4.0622612340e+01  4.1664217784e+01  7.2912381123e+00  0.0000000000e+00 
 0.0000000000e+00  0.0000000000e+00  0.0000000000e+00  0.0000000000e+00  0.0000000000e+00 
 0.0000000000e+00  0.0000000000e+00  2.0832108892e+00  1.3540870780e+01  4.6872245008e+01 
 5.9371510343e+01  1.3540870780e+01  5.2080272231e+00  0.0000000000e+00  0.0000000000e+00 
 0.0000000000e+00  0.0000000000e+00  7.2912381123e+00  2.1873714337e+01  7.2912381123e+00 
 1.0416054446e+00  0.0000000000e+00  0.0000000000e+00  0.0000000000e+00  0.0000000000e+00 
 0.0000000000e+00  0.0000000000e+00  0.0000000000e+00  1.0416054446e+00  1.4582476225e+01 
 4.4789034118e+01  1.7707292558e+01  2.0832108892e+00  0.0000000000e+00  0.0000000000e+00 
 0.0000000000e+00  0.0000000000e+00  0.0000000000e+00  0.0000000000e+00  4.1664217784e+00 
 8.3328435569e+00  0.0000000000e+00  0.0000000000e+00  0.0000000000e+00  0.0000000000e+00 
 0.0000000000e+00  0.0000000000e+00  0.0000000000e+00  0.0000000000e+00  1.0416054446e+00 
 1.0416054446e+01  2.0832108892e+01  5.2080272231e+00  0.0000000000e+00  0.0000000000e+00 
 0.0000000000e+00  0.0000000000e+00  0.0000000000e+00  0.0000000000e+00  0.0000000000e+00 
 7.2912381123e+00  7.2912381123e+00  0.0000000000e+00  0.0000000000e+00  0.0000000000e+00 
 0.0000000000e+00  0.0000000000e+00  0.0000000000e+00  0.0000000000e+00  0.0000000000e+00 
 0.0000000000e+00  3.1248163338e+00  8.3328435569e+00  3.1248163338e+00  0.0000000000e+00 
 0.0000000000e+00  0.0000000000e+00  0.0000000000e+00  0.0000000000e+00  0.0000000000e+00 
 1.0416054446e+00  6.2496326677e+00  1.3540870780e+01  0.0000000000e+00  0.0000000000e+00 
 0.0000000000e+00  0.0000000000e+00  0.0000000000e+00  0.0000000000e+00  0.0000000000e+00 
 0.0000000000e+00  0.0000000000e+00  0.0000000000e+00  1.0416054446e+00  0.0000000000e+00 
 0.0000000000e+00  0.0000000000e+00  0.0000000000e+00  0.0000000000e+00  0.0000000000e+00 
 0.0000000000e+00  9.3744490015e+00  3.7497796006e+01  2.6040136115e+01  1.0416054446e+00 
 0.0000000000e+00  0.0000000000e+00  0.0000000000e+00  0.0000000000e+00  0.0000000000e+00 
 0.0000000000e+00  0.0000000000e+00  0.0000000000e+00  0.0000000000e+00  1.0416054446e+01 
 1.0416054446e+00  1.0416054446e+00  0.0000000000e+00  0.0000000000e+00  0.0000000000e+00 
 1.0416054446e+00  1.0416054446e+01  2.6040136115e+01  5.2080272231e+01  1.8748898003e+01 
 1.0416054446e+00  2.0832108892e+00  0.0000000000e+00  0.0000000000e+00  0.0000000000e+00 
 0.0000000000e+00  0.0000000000e+00  0.0000000000e+00  0.0000000000e+00  0.0000000000e+00 
 1.9790503448e+01  3.8539401451e+01  6.2496326677e+00  0.0000000000e+00  0.0000000000e+00 
 3.1248163338e+00  4.4789034118e+01  4.9997061341e+01  8.5411646458e+01  4.4789034118e+01 
 4.1664217784e+00  1.0416054446e+00  0.0000000000e+00  1.0416054446e+00  0.0000000000e+00 
 0.0000000000e+00  0.0000000000e+00  0.0000000000e+00  0.0000000000e+00  0.0000000000e+00 
 1.0416054446e+00  1.4582476225e+01  2.7081741560e+01  1.7707292558e+01  5.2080272231e+00 
 1.0416054446e+00  2.0832108892e+00  1.7707292558e+01  2.1873714337e+01  1.9790503448e+01 
 5.2080272231e+00  3.1248163338e+00  1.0416054446e+00  1.0416054446e+00  1.1457659891e+01 
 7.2912381123e+00  6.2496326677e+00  3.1248163338e+00  0.0000000000e+00  1.0416054446e+00 
 0.0000000000e+00  1.0416054446e+00  3.1248163338e+00  5.2080272231e+00  2.0832108892e+00 
 1.0416054446e+00  1.0416054446e+00  0.0000000000e+00  1.0416054446e+00  0.0000000000e+00 
 3.1248163338e+00  0.0000000000e+00  1.0416054446e+00  1.5624081669e+01  2.1873714337e+01 
 3.8539401451e+01  3.0206557894e+01  1.7707292558e+01  8.3328435569e+00  1.2499265335e+01 
 1.7707292558e+01  2.8123347005e+01  0.0000000000e+00  0.0000000000e+00  0.0000000000e+00 
 0.0000000000e+00  0.0000000000e+00  0.0000000000e+00  0.0000000000e+00  0.0000000000e+00 
 0.0000000000e+00  0.0000000000e+00  0.0000000000e+00  1.1457659891e+01  4.4789034118e+01 
 3.6456190561e+01  1.1457659891e+01  1.1457659891e+01  4.1664217784e+00  2.0832108892e+00 
 3.1248163338e+00  2.1873714337e+01  2.1873714337e+01  5.2080272231e+00  0.0000000000e+00 
 0.0000000000e+00  0.0000000000e+00  0.0000000000e+00  0.0000000000e+00  0.0000000000e+00 
 0.0000000000e+00  0.0000000000e+00  0.0000000000e+00  0.0000000000e+00  1.5624081669e+01 
 6.9787564789e+01  1.4582476225e+01  2.0832108892e+00  0.0000000000e+00  0.0000000000e+00 
 0.0000000000e+00  0.0000000000e+00  2.0832108892e+00  9.3744490015e+00  2.0832108892e+00 
 0.0000000000e+00  0.0000000000e+00  0.0000000000e+00  0.0000000000e+00  0.0000000000e+00 
 0.0000000000e+00  0.0000000000e+00  0.0000000000e+00  0.0000000000e+00  0.0000000000e+00 
 2.4998530671e+01  6.5621143011e+01  6.2496326677e+00  0.0000000000e+00  0.0000000000e+00 
 0.0000000000e+00  0.0000000000e+00  0.0000000000e+00  0.0000000000e+00  3.1248163338e+00 
 3.1248163338e+00  0.0000000000e+00  0.0000000000e+00  0.0000000000e+00  0.0000000000e+00 
 0.0000000000e+00  0.0000000000e+00  0.0000000000e+00  0.0000000000e+00  0.0000000000e+00 
 0.0000000000e+00  3.1248163338e+00  3.5414585117e+01  3.1248163338e+00  0.0000000000e+00 
 0.0000000000e+00  0.0000000000e+00  0.0000000000e+00  0.0000000000e+00  0.0000000000e+00 
 2.0832108892e+00  4.1664217784e+00  0.0000000000e+00  0.0000000000e+00  0.0000000000e+00 
 0.0000000000e+00  0.0000000000e+00  0.0000000000e+00  0.0000000000e+00  0.0000000000e+00 
 0.0000000000e+00  0.0000000000e+00  2.0832108892e+00  1.3540870780e+01  7.2912381123e+00 
 0.0000000000e+00  0.0000000000e+00  0.0000000000e+00  0.0000000000e+00  0.0000000000e+00 
 1.0416054446e+00  9.3744490015e+00  1.5624081669e+01  2.0832108892e+00  0.0000000000e+00 
 0.0000000000e+00  0.0000000000e+00  0.0000000000e+00  0.0000000000e+00  0.0000000000e+00 
 0.0000000000e+00  0.0000000000e+00  0.0000000000e+00  2.0832108892e+00  8.3328435569e+00 
 6.2496326677e+00  1.0416054446e+00  0.0000000000e+00  0.0000000000e+00  0.0000000000e+00 
 0.0000000000e+00  2.0832108892e+00  5.2080272231e+01  1.0103572813e+02  8.3328435569e+00 
 0.0000000000e+00  0.0000000000e+00  0.0000000000e+00  0.0000000000e+00  0.0000000000e+00 
 0.0000000000e+00  0.0000000000e+00  0.0000000000e+00  0.0000000000e+00  1.0416054446e+00 
 4.1664217784e+00  1.4582476225e+01  2.0832108892e+00  0.0000000000e+00  0.0000000000e+00 
 0.0000000000e+00  0.0000000000e+00  7.2912381123e+00  5.2080272231e+01  7.1870775678e+01 
 1.0416054446e+01  0.0000000000e+00  0.0000000000e+00  0.0000000000e+00  0.0000000000e+00 
 0.0000000000e+00  0.0000000000e+00  0.0000000000e+00  0.0000000000e+00  0.0000000000e+00 
 0.0000000000e+00  0.0000000000e+00  1.6665687114e+01  1.4582476225e+01  4.1664217784e+00 
 2.0832108892e+00  1.0416054446e+00  9.3744490015e+00  7.2912381123e+00  3.4372979672e+01 
 1.8748898003e+01  0.0000000000e+00  0.0000000000e+00  5.2080272231e+00  0.0000000000e+00 
 0.0000000000e+00  1.0416054446e+00  0.0000000000e+00  0.0000000000e+00  0.0000000000e+00 
 0.0000000000e+00  0.0000000000e+00  0.0000000000e+00  4.1664217784e+00  2.0832108892e+00 
 3.1248163338e+00  8.3328435569e+00  2.2915319781e+01  6.4579537566e+01  2.3956925226e+01 
 6.2496326677e+00  4.1664217784e+00  0.0000000000e+00  0.0000000000e+00  7.2912381123e+00 
 5.2080272231e+00  0.0000000000e+00  2.0832108892e+00  3.1248163338e+00  1.0416054446e+00 
 0.0000000000e+00  0.0000000000e+00  0.0000000000e+00  0.0000000000e+00  0.0000000000e+00 
 0.0000000000e+00  2.0832108892e+00  3.1248163338e+00  3.5414585117e+01  4.4789034118e+01 
 7.2912381123e+00  3.1248163338e+00  0.0000000000e+00  1.0416054446e+00  2.0832108892e+00 
 2.2915319781e+01  4.3747428674e+01  2.1873714337e+01  8.3328435569e+00  5.2080272231e+00 
 5.2080272231e+00  5.2080272231e+00  7.2912381123e+00  0.0000000000e+00  0.0000000000e+00 
 0.0000000000e+00  0.0000000000e+00  0.0000000000e+00  0.0000000000e+00  5.2080272231e+00 
 9.3744490015e+00  4.1664217784e+00  1.0416054446e+00  0.0000000000e+00  0.0000000000e+00 
 1.0416054446e+01  3.3331374228e+01  7.7078802901e+01  3.2289768783e+01  0.0000000000e+00 
 2.0832108892e+00  1.0416054446e+01  2.8123347005e+01  4.1664217784e+00  0.0000000000e+00 
 0.0000000000e+00  0.0000000000e+00  0.0000000000e+00  0.0000000000e+00  0.0000000000e+00 
 0.0000000000e+00  0.0000000000e+00  0.0000000000e+00  0.0000000000e+00  2.0832108892e+00 
 3.1248163338e+00  1.8748898003e+01  2.6040136115e+01  7.2912381123e+00  3.1248163338e+00 
 0.0000000000e+00  0.0000000000e+00  0.0000000000e+00  1.3540870780e+01  6.2496326677e+00 
 0.0000000000e+00  0.0000000000e+00  0.0000000000e+00  0.0000000000e+00  0.0000000000e+00 
 0.0000000000e+00  0.0000000000e+00  0.0000000000e+00  0.0000000000e+00  2.0832108892e+00 
 8.3328435569e+00  2.6040136115e+01  3.8539401451e+01  4.1664217784e+00  0.0000000000e+00 
 0.0000000000e+00  0.0000000000e+00  0.0000000000e+00  0.0000000000e+00  2.0832108892e+00 
 1.2499265335e+01  4.1664217784e+00  0.0000000000e+00  0.0000000000e+00  0.0000000000e+00 
 0.0000000000e+00  0.0000000000e+00  0.0000000000e+00  0.0000000000e+00  0.0000000000e+00 
 0.0000000000e+00  2.8123347005e+01  6.9787564789e+01  3.9581006895e+01  2.0832108892e+00 
 0.0000000000e+00  0.0000000000e+00  0.0000000000e+00  0.0000000000e+00  1.0416054446e+00 
 6.2496326677e+00  2.4998530671e+01  1.3540870780e+01  0.0000000000e+00  0.0000000000e+00 
 0.0000000000e+00  0.0000000000e+00  0.0000000000e+00  0.0000000000e+00  0.0000000000e+00 
 0.0000000000e+00  0.0000000000e+00  1.1457659891e+01  3.1248163338e+01  1.0416054446e+01 
 1.0416054446e+00  0.0000000000e+00  0.0000000000e+00  0.0000000000e+00  0.0000000000e+00 
 0.0000000000e+00  5.2080272231e+00  3.6456190561e+01  3.1248163338e+01  3.1248163338e+00 
 0.0000000000e+00  0.0000000000e+00  0.0000000000e+00  0.0000000000e+00  0.0000000000e+00 
 0.0000000000e+00  0.0000000000e+00  0.0000000000e+00  1.0416054446e+00  9.3744490015e+00 
 3.1248163338e+00  0.0000000000e+00  0.0000000000e+00  0.0000000000e+00  0.0000000000e+00 
 0.0000000000e+00  2.0832108892e+00  1.1457659891e+01  3.0206557894e+01  2.2915319781e+01 
 1.0416054446e+00  0.0000000000e+00  0.0000000000e+00  0.0000000000e+00  0.0000000000e+00 
 0.0000000000e+00  0.0000000000e+00  0.0000000000e+00  0.0000000000e+00  0.0000000000e+00 
 8.3328435569e+00  1.0416054446e+00  2.0832108892e+00  0.0000000000e+00  0.0000000000e+00 
 0.0000000000e+00  6.2496326677e+00  2.1873714337e+01  1.7707292558e+01  1.2499265335e+01 
 2.0832108892e+00  0.0000000000e+00  3.1248163338e+00  0.0000000000e+00  0.0000000000e+00 
 0.0000000000e+00  0.0000000000e+00  0.0000000000e+00  0.0000000000e+00  0.0000000000e+00 
 0.0000000000e+00  2.0832108892e+00  9.3744490015e+00  7.2912381123e+00  6.2496326677e+00 
 1.0416054446e+00  1.4582476225e+01  7.3953986567e+01  5.7288299454e+01  1.5624081669e+01 
 6.2496326677e+00  0.0000000000e+00  0.0000000000e+00  0.0000000000e+00  1.0416054446e+00 
 0.0000000000e+00  0.0000000000e+00  0.0000000000e+00  0.0000000000e+00  0.0000000000e+00 
 0.0000000000e+00  1.0416054446e+00  0.0000000000e+00  5.2080272231e+00  7.2912381123e+00 
 1.0416054446e+00  0.0000000000e+00  3.1248163338e+00  2.9164952449e+01  1.9790503448e+01 
 6.2496326677e+00  0.0000000000e+00  0.0000000000e+00  0.0000000000e+00  0.0000000000e+00 
 3.1248163338e+00  9.3744490015e+00  1.1457659891e+01  2.0832108892e+00  0.0000000000e+00 
 0.0000000000e+00  0.0000000000e+00  0.0000000000e+00  0.0000000000e+00  0.0000000000e+00 
 0.0000000000e+00  0.0000000000e+00  3.1248163338e+00  0.0000000000e+00  0.0000000000e+00 
 1.0416054446e+00  0.0000000000e+00  0.0000000000e+00  0.0000000000e+00  3.1248163338e+00 
 0.0000000000e+00  1.4582476225e+01  3.6456190561e+01  3.9581006895e+01  1.2499265335e+01 
 5.2080272231e+00  9.3744490015e+00  6.2496326677e+00  0.0000000000e+00  0.0000000000e+00 
 0.0000000000e+00  0.0000000000e+00  0.0000000000e+00  0.0000000000e+00  0.0000000000e+00 
 0.0000000000e+00  0.0000000000e+00  0.0000000000e+00  0.0000000000e+00  0.0000000000e+00 
 3.1248163338e+00  1.0416054446e+01  2.2915319781e+01  2.4998530671e+01  1.3540870780e+01 
 1.6665687114e+01  1.4582476225e+01  2.3956925226e+01  1.1457659891e+01  0.0000000000e+00 
 0.0000000000e+00  0.0000000000e+00  0.0000000000e+00  0.0000000000e+00  0.0000000000e+00 
 0.0000000000e+00  0.0000000000e+00  0.0000000000e+00  0.0000000000e+00  0.0000000000e+00 
 8.3328435569e+00  2.9164952449e+01  1.2499265335e+01  0.0000000000e+00  1.0416054446e+00 
 2.0832108892e+00  2.0832108892e+00  4.1664217784e+00  1.5624081669e+01  6.2496326677e+00 
 0.0000000000e+00  0.0000000000e+00  0.0000000000e+00  0.0000000000e+00  0.0000000000e+00 
 0.0000000000e+00  0.0000000000e+00  0.0000000000e+00  0.0000000000e+00  0.0000000000e+00 
 0.0000000000e+00  3.2289768783e+01  9.5827700904e+01  3.6456190561e+01  2.0832108892e+00 
 0.0000000000e+00  0.0000000000e+00  0.0000000000e+00  0.0000000000e+00  1.0416054446e+00 
 7.2912381123e+00  1.0416054446e+00  0.0000000000e+00  0.0000000000e+00  0.0000000000e+00 
 0.0000000000e+00  0.0000000000e+00  0.0000000000e+00  0.0000000000e+00  0.0000000000e+00 
 0.0000000000e+00  0.0000000000e+00  6.2496326677e+00  5.1038666786e+01  1.1457659891e+01 
 0.0000000000e+00  0.0000000000e+00  0.0000000000e+00  0.0000000000e+00  0.0000000000e+00 
 1.0416054446e+00  1.0416054446e+00  9.3744490015e+00  1.0416054446e+00  0.0000000000e+00 
 0.0000000000e+00  0.0000000000e+00  0.0000000000e+00  0.0000000000e+00  0.0000000000e+00 
 0.0000000000e+00  0.0000000000e+00  0.0000000000e+00  0.0000000000e+00  1.4582476225e+01 
 3.0206557894e+01  2.0832108892e+00  0.0000000000e+00  0.0000000000e+00  0.0000000000e+00 
 2.0832108892e+00  8.3328435569e+00  4.2705823229e+01  4.1664217784e+01  1.0416054446e+00 
 0.0000000000e+00  0.0000000000e+00  0.0000000000e+00  0.0000000000e+00  0.0000000000e+00 
 0.0000000000e+00  0.0000000000e+00  0.0000000000e+00  0.0000000000e+00  0.0000000000e+00 
 4.1664217784e+00  2.7081741560e+01  8.3328435569e+00  0.0000000000e+00  1.0416054446e+00 
 0.0000000000e+00  0.0000000000e+00  1.8748898003e+01  7.1870775678e+01  8.1245224680e+01 
 6.2496326677e+00  0.0000000000e+00  0.0000000000e+00  0.0000000000e+00  0.0000000000e+00 
 0.0000000000e+00  0.0000000000e+00  0.0000000000e+00  0.0000000000e+00  0.0000000000e+00 
 0.0000000000e+00  3.1248163338e+00  2.2915319781e+01  1.6665687114e+01  5.2080272231e+00 
 1.0416054446e+00  3.1248163338e+00  9.3744490015e+00  1.5624081669e+01  1.4582476225e+01 
 1.2499265335e+01  0.0000000000e+00  0.0000000000e+00  0.0000000000e+00  0.0000000000e+00 
 0.0000000000e+00  0.0000000000e+00  0.0000000000e+00  0.0000000000e+00  0.0000000000e+00 
 0.0000000000e+00  0.0000000000e+00  0.0000000000e+00  1.2499265335e+01  3.6456190561e+01 
 1.9790503448e+01  2.7081741560e+01  2.8123347005e+01  2.1873714337e+01  3.1248163338e+00 
 0.0000000000e+00  1.0416054446e+00  0.0000000000e+00  0.0000000000e+00  0.0000000000e+00 
 0.0000000000e+00  0.0000000000e+00  0.0000000000e+00  0.0000000000e+00  0.0000000000e+00 
 0.0000000000e+00  0.0000000000e+00  0.0000000000e+00  0.0000000000e+00  2.0832108892e+00 
 3.1248163338e+00  8.3328435569e+00  6.8745959344e+01  8.9578068237e+01  1.9790503448e+01 
 1.0416054446e+00  0.0000000000e+00  0.0000000000e+00  0.0000000000e+00  0.0000000000e+00 
 0.0000000000e+00  0.0000000000e+00  0.0000000000e+00  1.1457659891e+01  2.0832108892e+00 
 0.0000000000e+00  0.0000000000e+00  0.0000000000e+00  0.0000000000e+00  0.0000000000e+00 
 0.0000000000e+00  0.0000000000e+00  0.0000000000e+00  1.4582476225e+01  3.3331374228e+01 
 1.3540870780e+01  0.0000000000e+00  0.0000000000e+00  0.0000000000e+00  0.0000000000e+00 
 2.0832108892e+00  3.1248163338e+00  1.1457659891e+01  9.3744490015e+00  3.4372979672e+01 
 8.3328435569e+00  3.1248163338e+00  2.0832108892e+00  0.0000000000e+00  0.0000000000e+00 
 0.0000000000e+00  0.0000000000e+00  0.0000000000e+00  0.0000000000e+00  0.0000000000e+00 
 3.1248163338e+00  4.1664217784e+00  0.0000000000e+00  0.0000000000e+00  0.0000000000e+00 
 0.0000000000e+00  0.0000000000e+00  8.3328435569e+00  5.8329904898e+01  7.0829170234e+01 
 1.6665687114e+01  2.0832108892e+01  5.2080272231e+00  1.0416054446e+01  4.1664217784e+00 
 0.0000000000e+00  0.0000000000e+00  0.0000000000e+00  0.0000000000e+00  0.0000000000e+00 
 0.0000000000e+00  3.1248163338e+00  1.0416054446e+00  0.0000000000e+00  0.0000000000e+00 
 0.0000000000e+00  0.0000000000e+00  4.1664217784e+00  1.7707292558e+01  3.8539401451e+01 
 1.9790503448e+01  1.0416054446e+00  2.0832108892e+00  6.2496326677e+00  2.1873714337e+01 
 1.4582476225e+01  0.0000000000e+00  0.0000000000e+00  0.0000000000e+00  0.0000000000e+00 
 0.0000000000e+00  0.0000000000e+00  1.0416054446e+00  1.0416054446e+00  0.0000000000e+00 
 2.0832108892e+00  0.0000000000e+00  3.1248163338e+00  1.9790503448e+01  1.4582476225e+01 
 9.3744490015e+00  0.0000000000e+00  0.0000000000e+00  2.0832108892e+00  2.0832108892e+00 
 1.8748898003e+01  3.3331374228e+01  3.1248163338e+00  0.0000000000e+00  0.0000000000e+00 
 0.0000000000e+00  0.0000000000e+00  0.0000000000e+00  0.0000000000e+00  0.0000000000e+00 
 0.0000000000e+00  0.0000000000e+00  2.8123347005e+01  6.8745959344e+01  6.8745959344e+01 