Li24 P4 S20 Cl4
 1.00 
 10.257048 0.0 0.0 
 0.0 10.257048 0.0 
 0.0 0.0 10.257048 
 Li P S Cl
 24 4 20 4
direct
 0.19295500  0.25163500  0.95607800 
 0.24963000  0.89512600  0.43693700 
 0.80221700  0.50087400  0.20536200 
 0.95464800  0.69544700  0.77628800 
 0.50515600  0.72484200  0.30160200 
 0.21318900  0.01797800  0.71533900 
 0.64800100  0.77782200  0.94973400 
 0.95273600  0.29157900  0.07320100 
 0.02485100  0.32825300  0.75149100 
 0.26578500  0.92140600  0.08746800 
 0.80504300  0.49217800  0.80990600 
 0.67665200  0.19095100  0.06487500 
 0.87002800  0.72825900  0.55190800 
 0.05176700  0.79209700  0.27690100 
 0.95832500  0.15363200  0.32280800 
 0.23654100  0.20979900  0.52222700 
 0.79472700  0.95569400  0.66869300 
 0.62865200  0.25914500  0.44174800 
 0.46436900  0.17025300  0.81923200 
 0.30295300  0.55196900  0.39584800 
 0.55661400  0.67976200  0.70464500 
 0.18460400  0.61997700  0.04237600 
 0.72586400  0.01196300  0.26355800 
 0.34469200  0.48258100  0.73274300 
 0.96705200  0.00055400  0.01910200 
 0.48474600  0.53054700  0.01428500 
 0.50911300  0.98508100  0.51263600 
 0.97173900  0.46515000  0.47113800 
 0.12080900  0.10592000  0.11146000 
 0.84983600  0.88242900  0.12247700 
 0.85730900  0.10816300  0.89527600 
 0.09680100  0.87771900  0.90904700 
 0.61730000  0.62171100  0.13347300 
 0.34857000  0.44110000  0.11333200 
 0.37801200  0.66810700  0.90369900 
 0.60221500  0.39290100  0.90401900 
 0.64139500  0.12225600  0.62880400 
 0.39596100  0.86229100  0.63293900 
 0.43056800  0.10964600  0.39432400 
 0.63846500  0.85263600  0.43804500 
 0.06731800  0.56435100  0.60860200 
 0.84558900  0.33831300  0.57008000 
 0.87766400  0.61458500  0.35583800 
 0.09900200  0.35438000  0.37103100 
 0.23673800  0.26655400  0.72617100 
 0.25600500  0.77551400  0.25596700 
 0.77885400  0.26722600  0.22618700 
 0.76108100  0.75473500  0.74430700 
 0.05499400  0.03025800  0.49470000 
 0.52861000  0.02627200  0.01806900 
 0.01478500  0.48413900  0.91995200 
 0.47029200  0.55192500  0.53702800 
 
 21 21 21 
 0.0000000000e+00  0.0000000000e+00  0.0000000000e+00  0.0000000000e+00  0.0000000000e+00 
 1.0416054446e+00  0.0000000000e+00  0.0000000000e+00  0.0000000000e+00  0.0000000000e+00 
 0.0000000000e+00  0.0000000000e+00  0.0000000000e+00  0.0000000000e+00  0.0000000000e+00 
 0.0000000000e+00  0.0000000000e+00  0.0000000000e+00  0.0000000000e+00  0.0000000000e+00 
 0.0000000000e+00  0.0000000000e+00  0.0000000000e+00  0.0000000000e+00  0.0000000000e+00 
 1.0416054446e+00  2.0832108892e+00  0.0000000000e+00  0.0000000000e+00  0.0000000000e+00 
 0.0000000000e+00  0.0000000000e+00  0.0000000000e+00  0.0000000000e+00  0.0000000000e+00 
 0.0000000000e+00  0.0000000000e+00  0.0000000000e+00  0.0000000000e+00  0.0000000000e+00 
 0.0000000000e+00  0.0000000000e+00  0.0000000000e+00  0.0000000000e+00  0.0000000000e+00 
 0.0000000000e+00  0.0000000000e+00  3.1248163338e+00  3.1248163338e+00  0.0000000000e+00 
 0.0000000000e+00  0.0000000000e+00  0.0000000000e+00  0.0000000000e+00  0.0000000000e+00 
 0.0000000000e+00  6.2496326677e+00  5.2080272231e+00  0.0000000000e+00  0.0000000000e+00 
 0.0000000000e+00  0.0000000000e+00  0.0000000000e+00  0.0000000000e+00  0.0000000000e+00 
 0.0000000000e+00  0.0000000000e+00  0.0000000000e+00  5.2080272231e+00  1.8748898003e+01 
 1.0416054446e+01  1.0416054446e+00  0.0000000000e+00  0.0000000000e+00  0.0000000000e+00 
 1.0416054446e+00  6.2496326677e+00  3.2289768783e+01  2.3956925226e+01  1.0416054446e+00 
 0.0000000000e+00  0.0000000000e+00  0.0000000000e+00  0.0000000000e+00  0.0000000000e+00 
 0.0000000000e+00  0.0000000000e+00  0.0000000000e+00  3.1248163338e+00  2.4998530671e+01 
 6.4579537566e+01  2.4998530671e+01  2.0832108892e+00  2.0832108892e+00  0.0000000000e+00 
 0.0000000000e+00  3.1248163338e+00  1.9790503448e+01  8.0203619235e+01  6.9787564789e+01 
 2.0832108892e+01  1.0416054446e+00  0.0000000000e+00  0.0000000000e+00  0.0000000000e+00 
 0.0000000000e+00  1.0416054446e+00  3.1248163338e+00  1.2499265335e+01  1.8748898003e+01 
 6.3537932121e+01  5.1038666786e+01  1.4582476225e+01  5.2080272231e+00  0.0000000000e+00 
 0.0000000000e+00  0.0000000000e+00  1.0416054446e+00  1.3540870780e+01  4.5830639563e+01 
 8.1245224680e+01  5.1038666786e+01  1.0416054446e+01  3.1248163338e+00  1.0416054446e+00 
 0.0000000000e+00  1.0416054446e+00  0.0000000000e+00  6.2496326677e+00  2.9164952449e+01 
 7.2912381123e+01  4.2705823229e+01  1.2499265335e+01  2.0832108892e+00  0.0000000000e+00 
 0.0000000000e+00  0.0000000000e+00  0.0000000000e+00  0.0000000000e+00  1.0416054446e+00 
 6.2496326677e+00  5.1038666786e+01  8.2286830124e+01  4.6872245008e+01  1.1457659891e+01 
 3.1248163338e+00  0.0000000000e+00  1.0416054446e+00  0.0000000000e+00  1.0416054446e+00 
 1.6665687114e+01  3.5414585117e+01  7.2912381123e+00  0.0000000000e+00  0.0000000000e+00 
 0.0000000000e+00  0.0000000000e+00  0.0000000000e+00  0.0000000000e+00  0.0000000000e+00 
 0.0000000000e+00  0.0000000000e+00  1.0416054446e+01  4.3747428674e+01  2.1873714337e+01 
 3.1248163338e+00  0.0000000000e+00  0.0000000000e+00  0.0000000000e+00  0.0000000000e+00 
 0.0000000000e+00  1.0416054446e+00  1.0416054446e+00  1.0416054446e+00  0.0000000000e+00 
 0.0000000000e+00  0.0000000000e+00  0.0000000000e+00  0.0000000000e+00  0.0000000000e+00 
 0.0000000000e+00  0.0000000000e+00  0.0000000000e+00  1.0416054446e+00  6.2496326677e+00 
 2.0832108892e+00  0.0000000000e+00  0.0000000000e+00  0.0000000000e+00  0.0000000000e+00 
 0.0000000000e+00  0.0000000000e+00  0.0000000000e+00  0.0000000000e+00  3.1248163338e+00 
 0.0000000000e+00  0.0000000000e+00  0.0000000000e+00  0.0000000000e+00  0.0000000000e+00 
 0.0000000000e+00  0.0000000000e+00  0.0000000000e+00  0.0000000000e+00  0.0000000000e+00 
 2.0832108892e+00  3.1248163338e+00  0.0000000000e+00  0.0000000000e+00  0.0000000000e+00 
 0.0000000000e+00  0.0000000000e+00  0.0000000000e+00  0.0000000000e+00  0.0000000000e+00 
 2.0832108892e+00  0.0000000000e+00  0.0000000000e+00  0.0000000000e+00  0.0000000000e+00 
 0.0000000000e+00  0.0000000000e+00  0.0000000000e+00  0.0000000000e+00  0.0000000000e+00 
 0.0000000000e+00  1.0416054446e+00  2.0832108892e+00  0.0000000000e+00  0.0000000000e+00 
 0.0000000000e+00  0.0000000000e+00  0.0000000000e+00  0.0000000000e+00  0.0000000000e+00 
 0.0000000000e+00  0.0000000000e+00  0.0000000000e+00  0.0000000000e+00  0.0000000000e+00 
 0.0000000000e+00  0.0000000000e+00  0.0000000000e+00  0.0000000000e+00  0.0000000000e+00 
 0.0000000000e+00  0.0000000000e+00  1.0416054446e+00  0.0000000000e+00  0.0000000000e+00 
 0.0000000000e+00  0.0000000000e+00  0.0000000000e+00  0.0000000000e+00  0.0000000000e+00 
 0.0000000000e+00  3.1248163338e+00  2.0832108892e+00  1.0416054446e+00  0.0000000000e+00 
 0.0000000000e+00  0.0000000000e+00  0.0000000000e+00  0.0000000000e+00  0.0000000000e+00 
 0.0000000000e+00  0.0000000000e+00  0.0000000000e+00  2.0832108892e+00  0.0000000000e+00 
 0.0000000000e+00  0.0000000000e+00  0.0000000000e+00  0.0000000000e+00  0.0000000000e+00 
 0.0000000000e+00  1.1457659891e+01  1.7707292558e+01  9.3744490015e+00  0.0000000000e+00 
 0.0000000000e+00  0.0000000000e+00  0.0000000000e+00  0.0000000000e+00  0.0000000000e+00 
 0.0000000000e+00  0.0000000000e+00  0.0000000000e+00  0.0000000000e+00  1.0416054446e+01 
 1.0416054446e+01  1.0416054446e+00  0.0000000000e+00  0.0000000000e+00  0.0000000000e+00 
 1.0416054446e+00  1.0416054446e+01  4.1664217784e+01  6.7704353900e+01  3.8539401451e+01 
 3.1248163338e+00  0.0000000000e+00  0.0000000000e+00  0.0000000000e+00  0.0000000000e+00 
 0.0000000000e+00  0.0000000000e+00  0.0000000000e+00  1.0416054446e+00  4.1664217784e+00 
 4.0622612340e+01  3.3331374228e+01  5.2080272231e+00  0.0000000000e+00  1.0416054446e+00 
 4.1664217784e+00  3.1248163338e+00  7.2912381123e+00  1.1457659891e+01  6.7704353900e+01 
 8.0203619235e+01  3.5414585117e+01  5.2080272231e+00  1.0416054446e+00  0.0000000000e+00 
 0.0000000000e+00  0.0000000000e+00  0.0000000000e+00  3.1248163338e+00  1.1457659891e+01 
 4.2705823229e+01  6.6662748455e+01  1.8748898003e+01  4.1664217784e+00  5.2080272231e+00 
 2.0832108892e+00  0.0000000000e+00  1.0416054446e+00  0.0000000000e+00  0.0000000000e+00 
 1.4582476225e+01  5.1038666786e+01  9.9994122683e+01  3.7497796006e+01  6.2496326677e+00 
 5.2080272231e+00  0.0000000000e+00  0.0000000000e+00  1.0416054446e+00  1.1457659891e+01 
 6.8745959344e+01  6.5621143011e+01  1.2499265335e+01  5.2080272231e+00  3.1248163338e+00 
 5.2080272231e+00  0.0000000000e+00  0.0000000000e+00  0.0000000000e+00  0.0000000000e+00 
 0.0000000000e+00  1.0416054446e+00  1.9790503448e+01  7.3953986567e+01  5.6246694009e+01 
 7.2912381123e+00  1.0416054446e+00  0.0000000000e+00  2.0832108892e+00  0.0000000000e+00 
 1.0416054446e+01  4.0622612340e+01  2.1873714337e+01  1.0416054446e+00  0.0000000000e+00 
 0.0000000000e+00  0.0000000000e+00  0.0000000000e+00  0.0000000000e+00  0.0000000000e+00 
 0.0000000000e+00  0.0000000000e+00  3.1248163338e+00  6.2496326677e+00  2.4998530671e+01 
 8.3328435569e+00  0.0000000000e+00  0.0000000000e+00  0.0000000000e+00  0.0000000000e+00 
 0.0000000000e+00  1.0416054446e+00  1.0416054446e+01  8.3328435569e+00  0.0000000000e+00 
 0.0000000000e+00  0.0000000000e+00  0.0000000000e+00  0.0000000000e+00  0.0000000000e+00 
 0.0000000000e+00  0.0000000000e+00  0.0000000000e+00  0.0000000000e+00  1.0416054446e+00 
 4.1664217784e+00  0.0000000000e+00  0.0000000000e+00  0.0000000000e+00  0.0000000000e+00 
 0.0000000000e+00  0.0000000000e+00  0.0000000000e+00  0.0000000000e+00  6.2496326677e+00 
 0.0000000000e+00  0.0000000000e+00  0.0000000000e+00  0.0000000000e+00  0.0000000000e+00 
 0.0000000000e+00  0.0000000000e+00  0.0000000000e+00  0.0000000000e+00  0.0000000000e+00 
 4.1664217784e+00  3.1248163338e+00  0.0000000000e+00  0.0000000000e+00  0.0000000000e+00 
 0.0000000000e+00  0.0000000000e+00  0.0000000000e+00  0.0000000000e+00  0.0000000000e+00 
 0.0000000000e+00  0.0000000000e+00  0.0000000000e+00  0.0000000000e+00  0.0000000000e+00 
 0.0000000000e+00  0.0000000000e+00  0.0000000000e+00  0.0000000000e+00  0.0000000000e+00 
 0.0000000000e+00  0.0000000000e+00  4.1664217784e+00  0.0000000000e+00  0.0000000000e+00 
 0.0000000000e+00  0.0000000000e+00  0.0000000000e+00  0.0000000000e+00  0.0000000000e+00 
 1.0416054446e+00  0.0000000000e+00  0.0000000000e+00  0.0000000000e+00  0.0000000000e+00 
 0.0000000000e+00  0.0000000000e+00  0.0000000000e+00  0.0000000000e+00  0.0000000000e+00 
 0.0000000000e+00  0.0000000000e+00  1.0416054446e+00  0.0000000000e+00  0.0000000000e+00 
 0.0000000000e+00  0.0000000000e+00  0.0000000000e+00  0.0000000000e+00  1.0416054446e+00 
 3.1248163338e+00  1.0416054446e+01  7.2912381123e+00  1.0416054446e+00  0.0000000000e+00 
 0.0000000000e+00  0.0000000000e+00  0.0000000000e+00  0.0000000000e+00  0.0000000000e+00 
 0.0000000000e+00  0.0000000000e+00  0.0000000000e+00  0.0000000000e+00  0.0000000000e+00 
 0.0000000000e+00  0.0000000000e+00  0.0000000000e+00  0.0000000000e+00  0.0000000000e+00 
 0.0000000000e+00  3.1248163338e+00  2.3956925226e+01  1.9790503448e+01  3.1248163338e+00 
 0.0000000000e+00  0.0000000000e+00  0.0000000000e+00  0.0000000000e+00  0.0000000000e+00 
 0.0000000000e+00  0.0000000000e+00  0.0000000000e+00  0.0000000000e+00  2.0832108892e+00 
 8.3328435569e+00  8.3328435569e+00  0.0000000000e+00  0.0000000000e+00  0.0000000000e+00 
 0.0000000000e+00  3.1248163338e+00  1.1457659891e+01  4.4789034118e+01  3.7497796006e+01 
 1.1457659891e+01  1.0416054446e+00  0.0000000000e+00  0.0000000000e+00  0.0000000000e+00 
 0.0000000000e+00  0.0000000000e+00  0.0000000000e+00  0.0000000000e+00  0.0000000000e+00 
 2.0832108892e+00  3.1248163338e+00  7.2912381123e+00  1.0416054446e+00  2.0832108892e+00 
 0.0000000000e+00  2.0832108892e+00  2.4998530671e+01  5.5205088564e+01  9.8952517238e+01 
 8.0203619235e+01  3.8539401451e+01  3.1248163338e+00  4.1664217784e+00  1.0416054446e+00 
 0.0000000000e+00  0.0000000000e+00  0.0000000000e+00  1.0416054446e+00  0.0000000000e+00 
 3.1248163338e+00  4.1664217784e+00  1.0416054446e+01  0.0000000000e+00  0.0000000000e+00 
 0.0000000000e+00  0.0000000000e+00  1.0416054446e+00  4.0622612340e+01  2.8123347005e+01 
 5.4163483120e+01  8.3328435569e+01  4.9997061341e+01  2.1873714337e+01  1.6665687114e+01 
 1.2499265335e+01  2.0832108892e+00  0.0000000000e+00  0.0000000000e+00  1.0416054446e+00 
 2.0832108892e+00  1.3540870780e+01  4.1664217784e+00  1.0416054446e+00  0.0000000000e+00 
 0.0000000000e+00  0.0000000000e+00  0.0000000000e+00  0.0000000000e+00  3.1248163338e+00 
 6.2496326677e+00  1.4582476225e+01  3.9581006895e+01  8.9578068237e+01  5.8329904898e+01 
 5.1038666786e+01  1.1457659891e+01  1.0416054446e+00  2.0832108892e+00  0.0000000000e+00 
 0.0000000000e+00  3.1248163338e+00  1.0416054446e+00  2.0832108892e+00  0.0000000000e+00 
 0.0000000000e+00  0.0000000000e+00  0.0000000000e+00  0.0000000000e+00  0.0000000000e+00 
 0.0000000000e+00  0.0000000000e+00  1.0416054446e+00  2.1873714337e+01  5.5205088564e+01 
 4.1664217784e+01  2.2915319781e+01  3.1248163338e+00  2.0832108892e+00  0.0000000000e+00 
 0.0000000000e+00  0.0000000000e+00  0.0000000000e+00  0.0000000000e+00  0.0000000000e+00 
 0.0000000000e+00  0.0000000000e+00  0.0000000000e+00  0.0000000000e+00  0.0000000000e+00 
 0.0000000000e+00  0.0000000000e+00  0.0000000000e+00  1.0416054446e+00  8.3328435569e+00 
 2.9164952449e+01  1.2499265335e+01  3.1248163338e+00  0.0000000000e+00  0.0000000000e+00 
 0.0000000000e+00  0.0000000000e+00  0.0000000000e+00  0.0000000000e+00  0.0000000000e+00 
 0.0000000000e+00  0.0000000000e+00  0.0000000000e+00  0.0000000000e+00  0.0000000000e+00 
 0.0000000000e+00  0.0000000000e+00  0.0000000000e+00  0.0000000000e+00  0.0000000000e+00 
 7.2912381123e+00  1.3540870780e+01  2.0832108892e+00  0.0000000000e+00  0.0000000000e+00 
 0.0000000000e+00  0.0000000000e+00  0.0000000000e+00  0.0000000000e+00  0.0000000000e+00 
 0.0000000000e+00  0.0000000000e+00  0.0000000000e+00  0.0000000000e+00  0.0000000000e+00 
 0.0000000000e+00  0.0000000000e+00  0.0000000000e+00  0.0000000000e+00  0.0000000000e+00 
 0.0000000000e+00  0.0000000000e+00  0.0000000000e+00  0.0000000000e+00  0.0000000000e+00 
 0.0000000000e+00  0.0000000000e+00  0.0000000000e+00  0.0000000000e+00  0.0000000000e+00 
 2.0832108892e+00  4.1664217784e+00  4.1664217784e+00  1.0416054446e+00  0.0000000000e+00 
 0.0000000000e+00  0.0000000000e+00  0.0000000000e+00  0.0000000000e+00  0.0000000000e+00 
 0.0000000000e+00  0.0000000000e+00  0.0000000000e+00  0.0000000000e+00  0.0000000000e+00 
 0.0000000000e+00  0.0000000000e+00  0.0000000000e+00  0.0000000000e+00  0.0000000000e+00 
 0.0000000000e+00  2.0832108892e+00  3.4372979672e+01  2.1873714337e+01  2.0832108892e+00 
 0.0000000000e+00  0.0000000000e+00  0.0000000000e+00  0.0000000000e+00  0.0000000000e+00 
 0.0000000000e+00  0.0000000000e+00  0.0000000000e+00  0.0000000000e+00  0.0000000000e+00 
 0.0000000000e+00  0.0000000000e+00  0.0000000000e+00  0.0000000000e+00  0.0000000000e+00 
 1.0416054446e+00  0.0000000000e+00  7.2912381123e+00  5.2080272231e+01  2.1873714337e+01 
 2.0832108892e+00  0.0000000000e+00  0.0000000000e+00  0.0000000000e+00  0.0000000000e+00 
 0.0000000000e+00  0.0000000000e+00  0.0000000000e+00  0.0000000000e+00  0.0000000000e+00 
 3.1248163338e+00  5.2080272231e+00  2.0832108892e+00  0.0000000000e+00  0.0000000000e+00 
 3.1248163338e+00  1.1457659891e+01  2.7081741560e+01  4.3747428674e+01  8.8536462792e+01 
 3.8539401451e+01  9.3744490015e+00  2.0832108892e+00  0.0000000000e+00  0.0000000000e+00 
 0.0000000000e+00  0.0000000000e+00  0.0000000000e+00  0.0000000000e+00  0.0000000000e+00 
 0.0000000000e+00  4.1664217784e+00  5.2080272231e+00  1.0416054446e+00  0.0000000000e+00 
 4.1664217784e+00  8.3328435569e+00  2.7081741560e+01  4.0622612340e+01  4.1664217784e+01 
 6.1454721232e+01  8.4370041014e+01  4.8955455897e+01  2.0832108892e+01  1.6665687114e+01 
 3.1248163338e+00  0.0000000000e+00  0.0000000000e+00  0.0000000000e+00  0.0000000000e+00 
 1.0416054446e+00  4.1664217784e+00  6.2496326677e+00  1.0416054446e+00  3.1248163338e+00 
 0.0000000000e+00  0.0000000000e+00  0.0000000000e+00  5.2080272231e+00  5.2080272231e+00 
 1.2499265335e+01  1.5624081669e+01  5.7288299454e+01  6.5621143011e+01  5.8329904898e+01 
 5.4163483120e+01  1.6665687114e+01  4.1664217784e+00  7.2912381123e+00  0.0000000000e+00 
 0.0000000000e+00  7.2912381123e+00  7.2912381123e+00  0.0000000000e+00  0.0000000000e+00 
 0.0000000000e+00  0.0000000000e+00  0.0000000000e+00  0.0000000000e+00  0.0000000000e+00 
 1.0416054446e+00  2.0832108892e+00  6.2496326677e+00  2.8123347005e+01  7.3953986567e+01 
 7.2912381123e+01  2.0832108892e+01  3.1248163338e+00  2.0832108892e+00  0.0000000000e+00 
 3.1248163338e+00  1.0416054446e+00  7.2912381123e+00  4.1664217784e+00  0.0000000000e+00 
 0.0000000000e+00  0.0000000000e+00  0.0000000000e+00  0.0000000000e+00  0.0000000000e+00 
 0.0000000000e+00  0.0000000000e+00  0.0000000000e+00  3.1248163338e+00  3.2289768783e+01 
 6.7704353900e+01  1.6665687114e+01  3.1248163338e+00  1.0416054446e+00  0.0000000000e+00 
 0.0000000000e+00  0.0000000000e+00  2.0832108892e+00  1.0416054446e+00  3.1248163338e+00 
 0.0000000000e+00  0.0000000000e+00  0.0000000000e+00  0.0000000000e+00  0.0000000000e+00 
 0.0000000000e+00  0.0000000000e+00  0.0000000000e+00  0.0000000000e+00  4.1664217784e+00 
 1.1457659891e+01  1.1457659891e+01  0.0000000000e+00  1.0416054446e+00  0.0000000000e+00 
 0.0000000000e+00  0.0000000000e+00  0.0000000000e+00  0.0000000000e+00  0.0000000000e+00 
 1.0416054446e+00  1.0416054446e+00  0.0000000000e+00  0.0000000000e+00  0.0000000000e+00 
 0.0000000000e+00  0.0000000000e+00  0.0000000000e+00  0.0000000000e+00  0.0000000000e+00 
 0.0000000000e+00  4.1664217784e+00  8.3328435569e+00  0.0000000000e+00  0.0000000000e+00 
 0.0000000000e+00  0.0000000000e+00  0.0000000000e+00  0.0000000000e+00  0.0000000000e+00 
 0.0000000000e+00  0.0000000000e+00  0.0000000000e+00  0.0000000000e+00  0.0000000000e+00 
 0.0000000000e+00  0.0000000000e+00  0.0000000000e+00  0.0000000000e+00  0.0000000000e+00 
 0.0000000000e+00  0.0000000000e+00  6.2496326677e+00  4.1664217784e+00  0.0000000000e+00 
 0.0000000000e+00  0.0000000000e+00  0.0000000000e+00  0.0000000000e+00  0.0000000000e+00 
 0.0000000000e+00  4.1664217784e+00  2.0832108892e+00  0.0000000000e+00  0.0000000000e+00 
 0.0000000000e+00  0.0000000000e+00  0.0000000000e+00  0.0000000000e+00  0.0000000000e+00 
 0.0000000000e+00  0.0000000000e+00  0.0000000000e+00  0.0000000000e+00  2.0832108892e+00 
 0.0000000000e+00  0.0000000000e+00  0.0000000000e+00  0.0000000000e+00  0.0000000000e+00 
 1.0416054446e+00  0.0000000000e+00  1.6665687114e+01  3.6456190561e+01  4.1664217784e+00 
 0.0000000000e+00  0.0000000000e+00  0.0000000000e+00  0.0000000000e+00  0.0000000000e+00 
 0.0000000000e+00  0.0000000000e+00  0.0000000000e+00  0.0000000000e+00  0.0000000000e+00 
 0.0000000000e+00  0.0000000000e+00  0.0000000000e+00  0.0000000000e+00  0.0000000000e+00 
 0.0000000000e+00  0.0000000000e+00  5.2080272231e+00  2.2915319781e+01  2.8123347005e+01 
 1.2499265335e+01  3.1248163338e+00  0.0000000000e+00  0.0000000000e+00  0.0000000000e+00 
 0.0000000000e+00  0.0000000000e+00  0.0000000000e+00  0.0000000000e+00  0.0000000000e+00 
 0.0000000000e+00  0.0000000000e+00  0.0000000000e+00  0.0000000000e+00  0.0000000000e+00 
 0.0000000000e+00  3.1248163338e+00  7.2912381123e+00  1.6665687114e+01  1.7707292558e+01 
 3.1248163338e+00  6.2496326677e+00  3.1248163338e+00  1.0416054446e+00  0.0000000000e+00 
 0.0000000000e+00  0.0000000000e+00  0.0000000000e+00  0.0000000000e+00  0.0000000000e+00 
 0.0000000000e+00  0.0000000000e+00  2.0832108892e+00  2.0832108892e+00  0.0000000000e+00 
 0.0000000000e+00  1.0416054446e+00  6.2496326677e+00  3.6456190561e+01  1.3540870780e+01 
 8.3328435569e+00  8.3328435569e+00  2.0832108892e+00  6.2496326677e+00  0.0000000000e+00 
 1.0416054446e+00  0.0000000000e+00  0.0000000000e+00  0.0000000000e+00  0.0000000000e+00 
 0.0000000000e+00  0.0000000000e+00  0.0000000000e+00  0.0000000000e+00  0.0000000000e+00 
 0.0000000000e+00  0.0000000000e+00  1.0416054446e+00  1.4582476225e+01  3.4372979672e+01 
 1.0416054446e+01  4.1664217784e+00  1.0416054446e+00  5.2080272231e+00  3.1248163338e+00 
 5.2080272231e+00  1.5624081669e+01  2.0832108892e+00  0.0000000000e+00  0.0000000000e+00 
 0.0000000000e+00  0.0000000000e+00  0.0000000000e+00  0.0000000000e+00  0.0000000000e+00 
 0.0000000000e+00  0.0000000000e+00  0.0000000000e+00  0.0000000000e+00  0.0000000000e+00 
 1.1457659891e+01  7.2912381123e+00  1.0416054446e+00  2.0832108892e+00  8.3328435569e+00 
 5.2080272231e+00  2.4998530671e+01  4.6872245008e+01  1.6665687114e+01  0.0000000000e+00 
 3.1248163338e+00  0.0000000000e+00  0.0000000000e+00  0.0000000000e+00  0.0000000000e+00 
 0.0000000000e+00  0.0000000000e+00  0.0000000000e+00  0.0000000000e+00  0.0000000000e+00 
 0.0000000000e+00  1.0416054446e+00  3.1248163338e+00  2.0832108892e+00  9.3744490015e+00 
 0.0000000000e+00  1.2499265335e+01  2.2915319781e+01  1.0416054446e+01  3.1248163338e+00 
 0.0000000000e+00  0.0000000000e+00  0.0000000000e+00  0.0000000000e+00  0.0000000000e+00 
 0.0000000000e+00  0.0000000000e+00  0.0000000000e+00  0.0000000000e+00  0.0000000000e+00 
 0.0000000000e+00  0.0000000000e+00  0.0000000000e+00  2.0832108892e+00  1.0416054446e+00 
 8.3328435569e+00  2.1873714337e+01  1.0416054446e+01  2.0832108892e+00  0.0000000000e+00 
 0.0000000000e+00  0.0000000000e+00  0.0000000000e+00  0.0000000000e+00  0.0000000000e+00 
 3.1248163338e+00  0.0000000000e+00  0.0000000000e+00  0.0000000000e+00  0.0000000000e+00 
 0.0000000000e+00  0.0000000000e+00  0.0000000000e+00  0.0000000000e+00  0.0000000000e+00 
 1.0416054446e+00  2.8123347005e+01  5.1038666786e+01  1.0416054446e+01  3.1248163338e+00 
 0.0000000000e+00  0.0000000000e+00  0.0000000000e+00  0.0000000000e+00  0.0000000000e+00 
 0.0000000000e+00  3.1248163338e+00  1.0416054446e+00  0.0000000000e+00  0.0000000000e+00 
 0.0000000000e+00  0.0000000000e+00  0.0000000000e+00  0.0000000000e+00  0.0000000000e+00 
 0.0000000000e+00  0.0000000000e+00  3.1248163338e+00  1.6665687114e+01  8.3328435569e+00 
 1.0416054446e+00  0.0000000000e+00  0.0000000000e+00  0.0000000000e+00  0.0000000000e+00 
 0.0000000000e+00  5.2080272231e+00  2.8123347005e+01  2.6040136115e+01  2.0832108892e+00 
 0.0000000000e+00  0.0000000000e+00  0.0000000000e+00  0.0000000000e+00  0.0000000000e+00 
 0.0000000000e+00  0.0000000000e+00  0.0000000000e+00  0.0000000000e+00  0.0000000000e+00 
 2.0832108892e+00  0.0000000000e+00  0.0000000000e+00  0.0000000000e+00  0.0000000000e+00 
 0.0000000000e+00  1.0416054446e+00  9.3744490015e+00  6.5621143011e+01  5.3121877675e+01 
 4.1664217784e+00  0.0000000000e+00  0.0000000000e+00  0.0000000000e+00  0.0000000000e+00 
 0.0000000000e+00  0.0000000000e+00  0.0000000000e+00  0.0000000000e+00  0.0000000000e+00 
 0.0000000000e+00  0.0000000000e+00  0.0000000000e+00  0.0000000000e+00  0.0000000000e+00 
 1.0416054446e+00  2.0832108892e+00  6.2496326677e+00  5.2080272231e+00  1.0416054446e+01 
 1.2499265335e+01  2.0832108892e+00  0.0000000000e+00  0.0000000000e+00  0.0000000000e+00 
 0.0000000000e+00  0.0000000000e+00  0.0000000000e+00  0.0000000000e+00  0.0000000000e+00 
 0.0000000000e+00  0.0000000000e+00  1.0416054446e+00  1.0416054446e+00  1.0416054446e+00 
 0.0000000000e+00  9.3744490015e+00  1.8748898003e+01  3.1248163338e+01  1.1457659891e+01 
 5.2080272231e+00  5.2080272231e+00  2.0832108892e+00  0.0000000000e+00  0.0000000000e+00 
 0.0000000000e+00  0.0000000000e+00  0.0000000000e+00  0.0000000000e+00  0.0000000000e+00 
 0.0000000000e+00  0.0000000000e+00  1.0416054446e+00  7.2912381123e+00  0.0000000000e+00 
 2.0832108892e+00  8.3328435569e+00  7.2912381123e+00  6.9787564789e+01  4.0622612340e+01 
 9.3744490015e+00  3.1248163338e+00  5.2080272231e+00  3.1248163338e+00  3.1248163338e+00 
 1.4582476225e+01  1.3540870780e+01  1.0416054446e+00  1.0416054446e+00  0.0000000000e+00 
 0.0000000000e+00  0.0000000000e+00  0.0000000000e+00  0.0000000000e+00  0.0000000000e+00 
 0.0000000000e+00  1.0416054446e+00  1.0416054446e+00  3.1248163338e+00  1.8748898003e+01 
 1.4582476225e+01  7.2912381123e+00  1.0416054446e+00  4.1664217784e+00  5.2080272231e+00 
 1.2499265335e+01  2.8123347005e+01  2.9164952449e+01  8.3328435569e+00  5.2080272231e+00 
 0.0000000000e+00  0.0000000000e+00  0.0000000000e+00  2.0832108892e+00  0.0000000000e+00 
 0.0000000000e+00  0.0000000000e+00  0.0000000000e+00  0.0000000000e+00  0.0000000000e+00 
 1.0416054446e+00  0.0000000000e+00  1.0416054446e+00  0.0000000000e+00  2.0832108892e+00 
 1.2499265335e+01  1.6665687114e+01  1.2499265335e+01  1.1457659891e+01  3.1248163338e+00 
 0.0000000000e+00  1.0416054446e+00  0.0000000000e+00  1.0416054446e+00  4.1664217784e+00 
 0.0000000000e+00  0.0000000000e+00  0.0000000000e+00  0.0000000000e+00  0.0000000000e+00 
 0.0000000000e+00  0.0000000000e+00  0.0000000000e+00  0.0000000000e+00  3.1248163338e+00 
 1.4582476225e+01  2.0832108892e+01  1.6665687114e+01  6.2496326677e+00  1.0416054446e+00 
 0.0000000000e+00  0.0000000000e+00  0.0000000000e+00  1.0416054446e+00  0.0000000000e+00 
 0.0000000000e+00  0.0000000000e+00  0.0000000000e+00  0.0000000000e+00  0.0000000000e+00 
 0.0000000000e+00  0.0000000000e+00  0.0000000000e+00  0.0000000000e+00  0.0000000000e+00 
 1.2499265335e+01  5.6246694009e+01  5.1038666786e+01  1.6665687114e+01  1.0416054446e+00 
 0.0000000000e+00  0.0000000000e+00  0.0000000000e+00  1.0416054446e+00  3.1248163338e+00 
 0.0000000000e+00  0.0000000000e+00  0.0000000000e+00  0.0000000000e+00  0.0000000000e+00 
 0.0000000000e+00  0.0000000000e+00  0.0000000000e+00  0.0000000000e+00  0.0000000000e+00 
 0.0000000000e+00  1.0416054446e+00  1.3540870780e+01  2.3956925226e+01  5.2080272231e+00 
 0.0000000000e+00  0.0000000000e+00  0.0000000000e+00  0.0000000000e+00  0.0000000000e+00 
 0.0000000000e+00  1.0416054446e+00  0.0000000000e+00  0.0000000000e+00  0.0000000000e+00 
 0.0000000000e+00  0.0000000000e+00  0.0000000000e+00  0.0000000000e+00  0.0000000000e+00 
 0.0000000000e+00  0.0000000000e+00  0.0000000000e+00  1.1457659891e+01  1.3540870780e+01 
 2.1873714337e+01  0.0000000000e+00  0.0000000000e+00  0.0000000000e+00  0.0000000000e+00 
 4.1664217784e+00  1.8748898003e+01  2.3956925226e+01  1.0416054446e+01  1.0416054446e+00 
 0.0000000000e+00  0.0000000000e+00  0.0000000000e+00  0.0000000000e+00  0.0000000000e+00 
 0.0000000000e+00  0.0000000000e+00  0.0000000000e+00  0.0000000000e+00  0.0000000000e+00 
 6.2496326677e+00  2.0832108892e+00  0.0000000000e+00  0.0000000000e+00  0.0000000000e+00 
 0.0000000000e+00  6.2496326677e+00  1.9790503448e+01  4.4789034118e+01  4.0622612340e+01 
 7.2912381123e+00  0.0000000000e+00  0.0000000000e+00  0.0000000000e+00  0.0000000000e+00 
 0.0000000000e+00  0.0000000000e+00  0.0000000000e+00  0.0000000000e+00  0.0000000000e+00 
 0.0000000000e+00  0.0000000000e+00  0.0000000000e+00  0.0000000000e+00  0.0000000000e+00 
 1.0416054446e+00  1.0416054446e+00  8.3328435569e+00  9.3744490015e+00  1.3540870780e+01 
 7.2912381123e+00  6.2496326677e+00  0.0000000000e+00  1.0416054446e+00  0.0000000000e+00 
 0.0000000000e+00  0.0000000000e+00  0.0000000000e+00  0.0000000000e+00  0.0000000000e+00 
 0.0000000000e+00  0.0000000000e+00  0.0000000000e+00  0.0000000000e+00  0.0000000000e+00 
 0.0000000000e+00  1.2499265335e+01  1.1457659891e+01  1.5624081669e+01  4.1664217784e+00 
 2.0832108892e+00  2.0832108892e+00  0.0000000000e+00  0.0000000000e+00  1.0416054446e+00 
 5.2080272231e+00  0.0000000000e+00  0.0000000000e+00  0.0000000000e+00  0.0000000000e+00 
 0.0000000000e+00  0.0000000000e+00  0.0000000000e+00  0.0000000000e+00  0.0000000000e+00 
 0.0000000000e+00  1.0416054446e+00  2.4998530671e+01  5.3121877675e+01  2.3956925226e+01 
 0.0000000000e+00  0.0000000000e+00  0.0000000000e+00  0.0000000000e+00  0.0000000000e+00 
 0.0000000000e+00  2.0832108892e+00  0.0000000000e+00  0.0000000000e+00  0.0000000000e+00 
 0.0000000000e+00  0.0000000000e+00  0.0000000000e+00  0.0000000000e+00  0.0000000000e+00 
 0.0000000000e+00  0.0000000000e+00  0.0000000000e+00  6.2496326677e+00  4.6872245008e+01 
 1.2499265335e+01  1.0416054446e+00  0.0000000000e+00  0.0000000000e+00  0.0000000000e+00 
 0.0000000000e+00  0.0000000000e+00  1.8748898003e+01  9.3744490015e+00  2.1873714337e+01 
 2.0832108892e+00  0.0000000000e+00  0.0000000000e+00  0.0000000000e+00  0.0000000000e+00 
 0.0000000000e+00  0.0000000000e+00  0.0000000000e+00  0.0000000000e+00  0.0000000000e+00 
 8.3328435569e+00  5.2080272231e+00  0.0000000000e+00  0.0000000000e+00  0.0000000000e+00 
 0.0000000000e+00  0.0000000000e+00  2.0832108892e+00  2.1873714337e+01  4.3747428674e+01 
 1.4582476225e+01  6.2496326677e+00  1.0416054446e+00  0.0000000000e+00  0.0000000000e+00 
 0.0000000000e+00  0.0000000000e+00  0.0000000000e+00  0.0000000000e+00  0.0000000000e+00 
 0.0000000000e+00  0.0000000000e+00  4.1664217784e+00  2.0832108892e+00  0.0000000000e+00 
 0.0000000000e+00  0.0000000000e+00  0.0000000000e+00  5.2080272231e+00  1.9790503448e+01 
 2.7081741560e+01  2.0832108892e+00  0.0000000000e+00  0.0000000000e+00  0.0000000000e+00 
 0.0000000000e+00  0.0000000000e+00  0.0000000000e+00  0.0000000000e+00  0.0000000000e+00 
 0.0000000000e+00  0.0000000000e+00  0.0000000000e+00  1.0416054446e+00  2.0832108892e+00 
 0.0000000000e+00  1.0416054446e+00  1.1457659891e+01  9.3744490015e+00  1.2499265335e+01 
 8.3328435569e+00  0.0000000000e+00  0.0000000000e+00  0.0000000000e+00  0.0000000000e+00 
 0.0000000000e+00  2.0832108892e+00  0.0000000000e+00  0.0000000000e+00  0.0000000000e+00 
 0.0000000000e+00  0.0000000000e+00  0.0000000000e+00  0.0000000000e+00  0.0000000000e+00 
 0.0000000000e+00  1.0416054446e+00  1.2499265335e+01  6.1454721232e+01  3.5414585117e+01 
 1.1457659891e+01  1.0416054446e+00  0.0000000000e+00  0.0000000000e+00  0.0000000000e+00 