Li28 P4 Se24
 1.00 
 10.629872 0.0 0.295828 
 0.299157 10.483647 -0.2584 
 0.0 0.0 10.491097 
 Li P Se
 28 4 24
direct
 0.06040800  0.38139300  0.74366300 
 0.93450200  0.90992500  0.71132500 
 0.00981100  0.36693100  0.19683000 
 0.02588100  0.64368900  0.17874400 
 0.94240800  0.11229000  0.31461700 
 0.93030200  0.17306300  0.56922100 
 0.19112900  0.96784000  0.31310600 
 0.51009900  0.81274000  0.12978300 
 0.75716600  0.85010900  0.96648400 
 0.20218700  0.27334600  0.95215000 
 0.86410300  0.53244700  0.84278700 
 0.70279100  0.46793200  0.30746000 
 0.48531100  0.39189200  0.71091600 
 0.31802700  0.29450800  0.50046300 
 0.65367900  0.28484000  0.51532500 
 0.06248200  0.77574800  0.36004800 
 0.56272700  0.24230000  0.17977800 
 0.25922000  0.61145000  0.42036300 
 0.42231400  0.07064000  0.82779400 
 0.54396400  0.82859200  0.74662700 
 0.46279700  0.59800000  0.23893100 
 0.20032500  0.61081200  0.99273400 
 0.61892300  0.63184400  0.64188200 
 0.79579300  0.83392800  0.50959000 
 0.70247000  0.00120000  0.16306000 
 0.82526400  0.27713900  0.03860300 
 0.31863600  0.96372000  0.08144400 
 0.22056800  0.00147900  0.68439700 
 0.01200200  0.96538000  0.98071800 
 0.96087900  0.51459100  0.50333900 
 0.49239100  0.99356800  0.45532500 
 0.52923000  0.49767900  0.96525200 
 0.12461900  0.10579500  0.10990300 
 0.89582500  0.87368800  0.14494700 
 0.91165000  0.10084300  0.85476200 
 0.12083300  0.82127600  0.86293600 
 0.08977100  0.64318500  0.60160000 
 0.79484400  0.38864800  0.67029800 
 0.85767900  0.62936200  0.36013500 
 0.05030500  0.32416500  0.45064400 
 0.61732000  0.04605000  0.60865100 
 0.37083900  0.84112200  0.55323500 
 0.37132800  0.11000000  0.34155700 
 0.61196300  0.85379800  0.32176800 
 0.66461800  0.59620600  0.10371500 
 0.38695600  0.41824000  0.08790800 
 0.43770700  0.60347400  0.80910900 
 0.63749300  0.31842900  0.88042900 
 0.28175800  0.25174200  0.72081200 
 0.77756200  0.76294100  0.74175600 
 0.78171100  0.24425900  0.26442000 
 0.25587200  0.72998000  0.19774200 
 0.03181000  0.99326300  0.49625600 
 0.55779100  0.96794100  0.96612100 
 0.00882300  0.48246600  0.99824800 
 0.50123500  0.46563100  0.45803500 
 
 22 21 21 
 0.0000000000e+00  0.0000000000e+00  0.0000000000e+00  0.0000000000e+00  0.0000000000e+00 
 0.0000000000e+00  0.0000000000e+00  0.0000000000e+00  0.0000000000e+00  0.0000000000e+00 
 0.0000000000e+00  0.0000000000e+00  0.0000000000e+00  0.0000000000e+00  0.0000000000e+00 
 5.6119150485e+00  0.0000000000e+00  0.0000000000e+00  0.0000000000e+00  0.0000000000e+00 
 0.0000000000e+00  0.0000000000e+00  0.0000000000e+00  0.0000000000e+00  0.0000000000e+00 
 0.0000000000e+00  0.0000000000e+00  0.0000000000e+00  2.8059575243e+00  0.0000000000e+00 
 0.0000000000e+00  0.0000000000e+00  0.0000000000e+00  0.0000000000e+00  0.0000000000e+00 
 0.0000000000e+00  9.3531917475e-01  1.2159149272e+01  4.6765958738e+00  0.0000000000e+00 
 0.0000000000e+00  0.0000000000e+00  0.0000000000e+00  0.0000000000e+00  0.0000000000e+00 
 0.0000000000e+00  0.0000000000e+00  0.0000000000e+00  0.0000000000e+00  0.0000000000e+00 
 5.6119150485e+00  1.8706383495e+00  1.8706383495e+00  0.0000000000e+00  0.0000000000e+00 
 0.0000000000e+00  0.0000000000e+00  0.0000000000e+00  1.1223830097e+01  2.3382979369e+01 
 3.7412766990e+00  0.0000000000e+00  0.0000000000e+00  0.0000000000e+00  0.0000000000e+00 
 0.0000000000e+00  0.0000000000e+00  0.0000000000e+00  0.0000000000e+00  0.0000000000e+00 
 0.0000000000e+00  0.0000000000e+00  7.4825533980e+00  4.3960001213e+01  6.5472342233e+00 
 0.0000000000e+00  0.0000000000e+00  0.0000000000e+00  0.0000000000e+00  1.8706383495e+00 
 6.9213618932e+01  7.5760853155e+01  1.7771064320e+01  0.0000000000e+00  0.0000000000e+00 
 0.0000000000e+00  0.0000000000e+00  0.0000000000e+00  0.0000000000e+00  0.0000000000e+00 
 0.0000000000e+00  0.0000000000e+00  9.3531917475e-01  7.4825533980e+00  1.7771064320e+01 
 3.8348086165e+01  1.9641702670e+01  1.1223830097e+01  7.4825533980e+00  6.5472342233e+00 
 1.7771064320e+01  2.7124256068e+01  9.6337875000e+01  6.6407661408e+01  1.2159149272e+01 
 4.6765958738e+00  9.3531917475e-01  1.8706383495e+00  0.0000000000e+00  0.0000000000e+00 
 0.0000000000e+00  2.8059575243e+00  9.3531917475e-01  9.3531917475e+00  1.7771064320e+01 
 2.4318298544e+01  1.6835745146e+01  1.2159149272e+01  3.7412766990e+00  2.8059575243e+00 
 4.6765958738e+00  2.8059575243e+00  7.4825533980e+00  9.3531917475e+00  5.6119150485e+00 
 2.5253617718e+01  6.5472342233e+00  1.6835745146e+01  4.1154043689e+01  1.2159149272e+01 
 6.5472342233e+00  9.3531917475e-01  9.3531917475e-01  7.4825533980e+00  1.0288510922e+01 
 4.1154043689e+01  9.0725959951e+01  6.0795746359e+01  9.3531917475e-01  9.3531917475e-01 
 9.3531917475e-01  9.3531917475e-01  0.0000000000e+00  0.0000000000e+00  0.0000000000e+00 
 0.0000000000e+00  9.3531917475e-01  2.8059575243e+00  2.2447660194e+01  1.2065617354e+02 
 1.2252681189e+02  3.4606809466e+01  4.6765958738e+00  9.3531917475e-01  0.0000000000e+00 
 0.0000000000e+00  9.3531917475e-01  1.5900425971e+01  6.3601703883e+01  2.5253617718e+01 
 0.0000000000e+00  0.0000000000e+00  0.0000000000e+00  0.0000000000e+00  0.0000000000e+00 
 0.0000000000e+00  0.0000000000e+00  0.0000000000e+00  0.0000000000e+00  0.0000000000e+00 
 1.4029787621e+01  1.3281532282e+02  8.0437449029e+01  6.5472342233e+00  0.0000000000e+00 
 0.0000000000e+00  0.0000000000e+00  0.0000000000e+00  0.0000000000e+00  0.0000000000e+00 
 9.3531917475e+00  1.1223830097e+01  0.0000000000e+00  0.0000000000e+00  0.0000000000e+00 
 0.0000000000e+00  0.0000000000e+00  0.0000000000e+00  0.0000000000e+00  0.0000000000e+00 
 0.0000000000e+00  0.0000000000e+00  4.6765958738e+00  3.6477447815e+01  1.5900425971e+01 
 9.3531917475e-01  0.0000000000e+00  0.0000000000e+00  0.0000000000e+00  0.0000000000e+00 
 0.0000000000e+00  0.0000000000e+00  2.8059575243e+00  1.0288510922e+01  0.0000000000e+00 
 0.0000000000e+00  0.0000000000e+00  0.0000000000e+00  0.0000000000e+00  0.0000000000e+00 
 0.0000000000e+00  0.0000000000e+00  0.0000000000e+00  0.0000000000e+00  3.7412766990e+00 
 2.3382979369e+01  0.0000000000e+00  0.0000000000e+00  0.0000000000e+00  0.0000000000e+00 
 0.0000000000e+00  0.0000000000e+00  0.0000000000e+00  0.0000000000e+00  1.8706383495e+00 
 3.7412766990e+00  1.8706383495e+00  0.0000000000e+00  0.0000000000e+00  0.0000000000e+00 
 0.0000000000e+00  0.0000000000e+00  0.0000000000e+00  0.0000000000e+00  0.0000000000e+00 
 0.0000000000e+00  4.6765958738e+00  6.5472342233e+00  0.0000000000e+00  0.0000000000e+00 
 0.0000000000e+00  0.0000000000e+00  0.0000000000e+00  0.0000000000e+00  0.0000000000e+00 
 0.0000000000e+00  9.3531917475e-01  1.9641702670e+01  1.0288510922e+01  0.0000000000e+00 
 0.0000000000e+00  0.0000000000e+00  0.0000000000e+00  0.0000000000e+00  0.0000000000e+00 
 0.0000000000e+00  0.0000000000e+00  0.0000000000e+00  2.8059575243e+00  3.7412766990e+00 
 1.8706383495e+00  0.0000000000e+00  0.0000000000e+00  0.0000000000e+00  0.0000000000e+00 
 0.0000000000e+00  0.0000000000e+00  9.3531917475e-01  3.7412766990e+00  2.7124256068e+01 
 2.8059575243e+00  0.0000000000e+00  0.0000000000e+00  0.0000000000e+00  0.0000000000e+00 
 0.0000000000e+00  0.0000000000e+00  0.0000000000e+00  0.0000000000e+00  0.0000000000e+00 
 0.0000000000e+00  4.6765958738e+00  2.8059575243e+00  0.0000000000e+00  0.0000000000e+00 
 0.0000000000e+00  0.0000000000e+00  0.0000000000e+00  0.0000000000e+00  1.4029787621e+01 
 4.0218724514e+01  3.4606809466e+01  1.8706383495e+00  0.0000000000e+00  0.0000000000e+00 
 0.0000000000e+00  0.0000000000e+00  0.0000000000e+00  0.0000000000e+00  0.0000000000e+00 
 0.0000000000e+00  0.0000000000e+00  1.8706383495e+00  1.2159149272e+01  1.2159149272e+01 
 9.3531917475e-01  0.0000000000e+00  0.0000000000e+00  2.8059575243e+00  9.3531917475e+00 
 1.7771064320e+01  3.2736171116e+01  4.8636597087e+01  2.7124256068e+01  7.4825533980e+00 
 0.0000000000e+00  0.0000000000e+00  0.0000000000e+00  0.0000000000e+00  0.0000000000e+00 
 0.0000000000e+00  0.0000000000e+00  0.0000000000e+00  9.3531917475e-01  2.8059575243e+00 
 1.3094468447e+01  2.3382979369e+01  7.4825533980e+00  2.8059575243e+00  9.3531917475e-01 
 9.3531917475e+00  1.1223830097e+01  3.2736171116e+01  3.0865532767e+01  2.0577021845e+01 
 2.0577021845e+01  1.5900425971e+01  8.4178725728e+00  3.7412766990e+00  9.3531917475e-01 
 0.0000000000e+00  0.0000000000e+00  0.0000000000e+00  0.0000000000e+00  1.8706383495e+00 
 4.6765958738e+00  4.6765958738e+00  4.6765958738e+00  4.6765958738e+00  5.6119150485e+00 
 9.3531917475e-01  2.8059575243e+00  0.0000000000e+00  0.0000000000e+00  7.4825533980e+00 
 4.6765958738e+00  4.6765958738e+00  1.8706383495e+01  5.5183831310e+01  6.1731065534e+01 
 3.7412766990e+01  1.3094468447e+01  3.7412766990e+00  1.8706383495e+00  7.4825533980e+00 
 6.5472342233e+00  2.8059575243e+01  3.8348086165e+01  8.4178725728e+00  9.3531917475e-01 
 0.0000000000e+00  9.3531917475e-01  0.0000000000e+00  0.0000000000e+00  0.0000000000e+00 
 0.0000000000e+00  0.0000000000e+00  0.0000000000e+00  9.3531917475e-01  1.2159149272e+01 
 1.1597957767e+02  1.6181021723e+02  2.8059575243e+01  5.6119150485e+00  0.0000000000e+00 
 0.0000000000e+00  9.3531917475e-01  4.6765958738e+00  7.8566810679e+01  8.2308087378e+01 
 9.3531917475e+00  0.0000000000e+00  0.0000000000e+00  0.0000000000e+00  0.0000000000e+00 
 0.0000000000e+00  0.0000000000e+00  0.0000000000e+00  0.0000000000e+00  0.0000000000e+00 
 1.8706383495e+00  1.1223830097e+01  8.6049364077e+01  4.9571916262e+01  8.4178725728e+00 
 0.0000000000e+00  0.0000000000e+00  0.0000000000e+00  0.0000000000e+00  0.0000000000e+00 
 1.7771064320e+01  4.0218724514e+01  4.6765958738e+00  0.0000000000e+00  0.0000000000e+00 
 0.0000000000e+00  0.0000000000e+00  0.0000000000e+00  0.0000000000e+00  0.0000000000e+00 
 0.0000000000e+00  0.0000000000e+00  9.3531917475e-01  9.3531917475e+00  5.2377873786e+01 
 9.3531917475e+00  0.0000000000e+00  0.0000000000e+00  0.0000000000e+00  0.0000000000e+00 
 0.0000000000e+00  0.0000000000e+00  0.0000000000e+00  7.4825533980e+00  1.8706383495e+00 
 0.0000000000e+00  0.0000000000e+00  0.0000000000e+00  0.0000000000e+00  0.0000000000e+00 
 0.0000000000e+00  0.0000000000e+00  0.0000000000e+00  0.0000000000e+00  0.0000000000e+00 
 6.5472342233e+00  2.0577021845e+01  1.8706383495e+00  0.0000000000e+00  0.0000000000e+00 
 0.0000000000e+00  0.0000000000e+00  0.0000000000e+00  0.0000000000e+00  0.0000000000e+00 
 3.7412766990e+00  0.0000000000e+00  0.0000000000e+00  0.0000000000e+00  0.0000000000e+00 
 0.0000000000e+00  0.0000000000e+00  0.0000000000e+00  0.0000000000e+00  0.0000000000e+00 
 0.0000000000e+00  0.0000000000e+00  2.8059575243e+00  9.3531917475e-01  0.0000000000e+00 
 0.0000000000e+00  0.0000000000e+00  0.0000000000e+00  0.0000000000e+00  0.0000000000e+00 
 0.0000000000e+00  9.3531917475e-01  1.1223830097e+01  1.8706383495e+00  0.0000000000e+00 
 0.0000000000e+00  0.0000000000e+00  0.0000000000e+00  0.0000000000e+00  0.0000000000e+00 
 0.0000000000e+00  0.0000000000e+00  0.0000000000e+00  0.0000000000e+00  0.0000000000e+00 
 0.0000000000e+00  0.0000000000e+00  0.0000000000e+00  0.0000000000e+00  0.0000000000e+00 
 0.0000000000e+00  0.0000000000e+00  9.3531917475e-01  6.5472342233e+00  4.7701277912e+01 
 1.3094468447e+01  0.0000000000e+00  0.0000000000e+00  0.0000000000e+00  0.0000000000e+00 
 0.0000000000e+00  0.0000000000e+00  0.0000000000e+00  0.0000000000e+00  0.0000000000e+00 
 0.0000000000e+00  0.0000000000e+00  0.0000000000e+00  1.8706383495e+00  3.7412766990e+00 
 0.0000000000e+00  0.0000000000e+00  0.0000000000e+00  0.0000000000e+00  3.7412766990e+00 
 3.0865532767e+01  4.6765958738e+01  2.6188936893e+01  0.0000000000e+00  0.0000000000e+00 
 0.0000000000e+00  0.0000000000e+00  0.0000000000e+00  0.0000000000e+00  0.0000000000e+00 
 0.0000000000e+00  0.0000000000e+00  0.0000000000e+00  0.0000000000e+00  0.0000000000e+00 
 2.8059575243e+00  9.3531917475e-01  9.3531917475e-01  9.3531917475e-01  1.8706383495e+00 
 5.6119150485e+00  2.7124256068e+01  7.2954895631e+01  5.5183831310e+01  6.5472342233e+00 
 3.7412766990e+00  0.0000000000e+00  0.0000000000e+00  0.0000000000e+00  0.0000000000e+00 
 0.0000000000e+00  0.0000000000e+00  0.0000000000e+00  0.0000000000e+00  0.0000000000e+00 
 0.0000000000e+00  9.3531917475e-01  3.7412766990e+00  2.8059575243e+00  0.0000000000e+00 
 2.8059575243e+00  1.9641702670e+01  4.2089362864e+01  5.9860427184e+01  5.2377873786e+01 
 2.4318298544e+01  3.7412766990e+00  4.6765958738e+00  9.3531917475e+00  4.6765958738e+00 
 0.0000000000e+00  0.0000000000e+00  3.7412766990e+00  9.3531917475e-01  0.0000000000e+00 
 0.0000000000e+00  9.3531917475e-01  9.3531917475e-01  0.0000000000e+00  0.0000000000e+00 
 0.0000000000e+00  0.0000000000e+00  9.3531917475e-01  9.3531917475e+00  2.7124256068e+01 
 2.4318298544e+01  1.3094468447e+01  2.8059575243e+00  9.3531917475e-01  3.7412766990e+00 
 1.2159149272e+01  3.0865532767e+01  2.7124256068e+01  8.4178725728e+00  5.6119150485e+00 
 4.6765958738e+00  1.8706383495e+00  5.6119150485e+00  1.3094468447e+01  2.8059575243e+00 
 9.3531917475e-01  0.0000000000e+00  0.0000000000e+00  0.0000000000e+00  0.0000000000e+00 
 0.0000000000e+00  2.8059575243e+00  0.0000000000e+00  4.6765958738e+00  5.6119150485e+00 
 1.8706383495e+00  1.4029787621e+01  4.6765958738e+01  5.5183831310e+01  3.1800851942e+01 
 5.6119150485e+00  2.8059575243e+00  0.0000000000e+00  1.8706383495e+00  7.4825533980e+00 
 1.1223830097e+01  2.8059575243e+00  0.0000000000e+00  0.0000000000e+00  0.0000000000e+00 
 0.0000000000e+00  0.0000000000e+00  0.0000000000e+00  0.0000000000e+00  0.0000000000e+00 
 9.3531917475e-01  6.5472342233e+00  2.0577021845e+01  6.9213618932e+01  6.5472342233e+01 
 1.4029787621e+01  1.8706383495e+00  9.3531917475e-01  0.0000000000e+00  0.0000000000e+00 
 0.0000000000e+00  9.3531917475e-01  2.8059575243e+00  1.8706383495e+00  0.0000000000e+00 
 0.0000000000e+00  0.0000000000e+00  0.0000000000e+00  0.0000000000e+00  0.0000000000e+00 
 0.0000000000e+00  0.0000000000e+00  0.0000000000e+00  2.8059575243e+00  3.4606809466e+01 
 7.4825533980e+01  1.9641702670e+01  0.0000000000e+00  0.0000000000e+00  0.0000000000e+00 
 0.0000000000e+00  0.0000000000e+00  0.0000000000e+00  0.0000000000e+00  9.3531917475e-01 
 1.8706383495e+00  0.0000000000e+00  0.0000000000e+00  0.0000000000e+00  0.0000000000e+00 
 0.0000000000e+00  0.0000000000e+00  0.0000000000e+00  0.0000000000e+00  0.0000000000e+00 
 9.3531917475e-01  1.5900425971e+01  4.8636597087e+01  4.6765958738e+00  0.0000000000e+00 
 0.0000000000e+00  0.0000000000e+00  0.0000000000e+00  0.0000000000e+00  0.0000000000e+00 
 0.0000000000e+00  4.6765958738e+00  5.6119150485e+00  2.8059575243e+00  0.0000000000e+00 
 0.0000000000e+00  0.0000000000e+00  0.0000000000e+00  0.0000000000e+00  0.0000000000e+00 
 0.0000000000e+00  0.0000000000e+00  0.0000000000e+00  4.6765958738e+00  1.0288510922e+01 
 9.3531917475e-01  0.0000000000e+00  0.0000000000e+00  0.0000000000e+00  0.0000000000e+00 
 0.0000000000e+00  0.0000000000e+00  1.8706383495e+00  1.4029787621e+01  4.3024682039e+01 
 1.7771064320e+01  0.0000000000e+00  0.0000000000e+00  0.0000000000e+00  0.0000000000e+00 
 0.0000000000e+00  0.0000000000e+00  0.0000000000e+00  0.0000000000e+00  0.0000000000e+00 
 9.3531917475e-01  3.7412766990e+00  9.3531917475e-01  0.0000000000e+00  0.0000000000e+00 
 0.0000000000e+00  0.0000000000e+00  0.0000000000e+00  0.0000000000e+00  2.8059575243e+00 
 3.9283405340e+01  8.8855321602e+01  2.0577021845e+01  9.3531917475e-01  0.0000000000e+00 
 0.0000000000e+00  0.0000000000e+00  0.0000000000e+00  0.0000000000e+00  0.0000000000e+00 
 0.0000000000e+00  0.0000000000e+00  0.0000000000e+00  0.0000000000e+00  0.0000000000e+00 
 0.0000000000e+00  0.0000000000e+00  0.0000000000e+00  0.0000000000e+00  0.0000000000e+00 
 9.3531917475e-01  1.4965106796e+01  3.5542128641e+01  2.8994894417e+01  1.8706383495e+00 
 0.0000000000e+00  0.0000000000e+00  0.0000000000e+00  0.0000000000e+00  0.0000000000e+00 
 0.0000000000e+00  0.0000000000e+00  0.0000000000e+00  0.0000000000e+00  0.0000000000e+00 
 9.3531917475e-01  3.7412766990e+00  2.8059575243e+00  9.3531917475e-01  0.0000000000e+00 
 3.7412766990e+00  1.6835745146e+01  4.1154043689e+01  5.3313192961e+01  3.1800851942e+01 
 1.2159149272e+01  0.0000000000e+00  0.0000000000e+00  1.8706383495e+00  9.3531917475e-01 
 0.0000000000e+00  0.0000000000e+00  0.0000000000e+00  0.0000000000e+00  0.0000000000e+00 
 0.0000000000e+00  0.0000000000e+00  1.8706383495e+00  9.3531917475e-01  2.8059575243e+00 
 1.8706383495e+00  2.8059575243e+00  3.7412766990e+00  5.7054469660e+01  7.9502129854e+01 
 3.3671490291e+01  1.4965106796e+01  1.8706383495e+00  4.6765958738e+00  2.8059575243e+00 
 9.3531917475e+00  2.6188936893e+01  8.4178725728e+00  0.0000000000e+00  0.0000000000e+00 
 9.3531917475e-01  0.0000000000e+00  0.0000000000e+00  0.0000000000e+00  0.0000000000e+00 
 0.0000000000e+00  0.0000000000e+00  0.0000000000e+00  2.8059575243e+00  0.0000000000e+00 
 1.6835745146e+01  1.6835745146e+01  3.7412766990e+00  4.6765958738e+00  4.6765958738e+00 
 7.4825533980e+00  1.2159149272e+01  4.2089362864e+01  4.3024682039e+01  2.9930213592e+01 
 9.3531917475e-01  0.0000000000e+00  9.3531917475e-01  9.3531917475e-01  0.0000000000e+00 
 0.0000000000e+00  0.0000000000e+00  0.0000000000e+00  0.0000000000e+00  0.0000000000e+00 
 0.0000000000e+00  0.0000000000e+00  9.3531917475e-01  9.3531917475e-01  0.0000000000e+00 
 2.8059575243e+00  9.3531917475e-01  1.9641702670e+01  5.2377873786e+01  2.3382979369e+01 
 1.4029787621e+01  1.1223830097e+01  0.0000000000e+00  1.8706383495e+00  0.0000000000e+00 
 1.1223830097e+01  4.6765958738e+00  0.0000000000e+00  0.0000000000e+00  0.0000000000e+00 
 0.0000000000e+00  0.0000000000e+00  0.0000000000e+00  0.0000000000e+00  0.0000000000e+00 
 0.0000000000e+00  0.0000000000e+00  3.7412766990e+00  1.6835745146e+01  4.9571916262e+01 
 3.6477447815e+01  7.4825533980e+00  9.3531917475e-01  0.0000000000e+00  0.0000000000e+00 
 0.0000000000e+00  9.3531917475e-01  9.3531917475e+00  0.0000000000e+00  0.0000000000e+00 
 0.0000000000e+00  0.0000000000e+00  0.0000000000e+00  0.0000000000e+00  0.0000000000e+00 
 0.0000000000e+00  0.0000000000e+00  0.0000000000e+00  0.0000000000e+00  0.0000000000e+00 
 2.9930213592e+01  8.1372768204e+01  2.4318298544e+01  1.8706383495e+00  0.0000000000e+00 
 0.0000000000e+00  0.0000000000e+00  0.0000000000e+00  0.0000000000e+00  0.0000000000e+00 
 0.0000000000e+00  0.0000000000e+00  0.0000000000e+00  0.0000000000e+00  0.0000000000e+00 
 0.0000000000e+00  0.0000000000e+00  0.0000000000e+00  0.0000000000e+00  0.0000000000e+00 
 0.0000000000e+00  0.0000000000e+00  7.4825533980e+00  4.4895320388e+01  5.6119150485e+00 
 0.0000000000e+00  0.0000000000e+00  0.0000000000e+00  0.0000000000e+00  0.0000000000e+00 
 0.0000000000e+00  0.0000000000e+00  3.7412766990e+00  0.0000000000e+00  0.0000000000e+00 
 0.0000000000e+00  0.0000000000e+00  0.0000000000e+00  0.0000000000e+00  0.0000000000e+00 
 0.0000000000e+00  0.0000000000e+00  0.0000000000e+00  0.0000000000e+00  9.3531917475e-01 
 1.2159149272e+01  1.0288510922e+01  0.0000000000e+00  0.0000000000e+00  0.0000000000e+00 
 0.0000000000e+00  0.0000000000e+00  9.3531917475e-01  1.0288510922e+01  2.0577021845e+01 
 7.4825533980e+00  0.0000000000e+00  0.0000000000e+00  0.0000000000e+00  0.0000000000e+00 
 0.0000000000e+00  0.0000000000e+00  0.0000000000e+00  0.0000000000e+00  0.0000000000e+00 
 0.0000000000e+00  0.0000000000e+00  2.8059575243e+00  4.6765958738e+00  1.8706383495e+00 
 9.3531917475e-01  0.0000000000e+00  0.0000000000e+00  0.0000000000e+00  3.7412766990e+00 
 4.3960001213e+01  4.8636597087e+01  6.5472342233e+00  0.0000000000e+00  0.0000000000e+00 
 0.0000000000e+00  0.0000000000e+00  0.0000000000e+00  0.0000000000e+00  0.0000000000e+00 
 0.0000000000e+00  0.0000000000e+00  0.0000000000e+00  0.0000000000e+00  9.3531917475e-01 
 2.8059575243e+00  1.2159149272e+01  9.3531917475e-01  0.0000000000e+00  0.0000000000e+00 
 4.6765958738e+00  1.9641702670e+01  3.2736171116e+01  1.7771064320e+01  4.6765958738e+00 
 0.0000000000e+00  0.0000000000e+00  0.0000000000e+00  0.0000000000e+00  0.0000000000e+00 
 0.0000000000e+00  0.0000000000e+00  0.0000000000e+00  0.0000000000e+00  0.0000000000e+00 
 0.0000000000e+00  0.0000000000e+00  1.8706383495e+00  5.6119150485e+00  5.6119150485e+00 
 0.0000000000e+00  1.2159149272e+01  2.2447660194e+01  2.9930213592e+01  6.5472342233e+00 
 1.8706383495e+00  9.3531917475e-01  0.0000000000e+00  9.3531917475e-01  0.0000000000e+00 
 0.0000000000e+00  0.0000000000e+00  0.0000000000e+00  0.0000000000e+00  0.0000000000e+00 
 0.0000000000e+00  0.0000000000e+00  0.0000000000e+00  0.0000000000e+00  0.0000000000e+00 
 9.3531917475e-01  0.0000000000e+00  5.6119150485e+00  3.9283405340e+01  6.0795746359e+01 
 3.3671490291e+01  1.8706383495e+00  0.0000000000e+00  0.0000000000e+00  0.0000000000e+00 
 0.0000000000e+00  9.3531917475e-01  7.4825533980e+00  9.3531917475e-01  4.6765958738e+00 
 0.0000000000e+00  0.0000000000e+00  0.0000000000e+00  0.0000000000e+00  0.0000000000e+00 
 0.0000000000e+00  0.0000000000e+00  0.0000000000e+00  0.0000000000e+00  0.0000000000e+00 
 1.0288510922e+01  2.4318298544e+01  9.3531917475e+00  2.8059575243e+00  0.0000000000e+00 
 0.0000000000e+00  0.0000000000e+00  9.3531917475e-01  5.6119150485e+00  2.7124256068e+01 
 1.4029787621e+01  7.4825533980e+00  2.8059575243e+00  1.8706383495e+00  0.0000000000e+00 
 0.0000000000e+00  0.0000000000e+00  0.0000000000e+00  0.0000000000e+00  0.0000000000e+00 
 0.0000000000e+00  0.0000000000e+00  0.0000000000e+00  9.3531917475e-01  0.0000000000e+00 
 9.3531917475e-01  0.0000000000e+00  0.0000000000e+00  0.0000000000e+00  1.8706383495e+00 
 1.9641702670e+01  3.1800851942e+01  1.7771064320e+01  4.6765958738e+00  3.7412766990e+00 
 2.8059575243e+00  3.7412766990e+00  9.3531917475e-01  0.0000000000e+00  0.0000000000e+00 
 0.0000000000e+00  0.0000000000e+00  0.0000000000e+00  0.0000000000e+00  0.0000000000e+00 
 0.0000000000e+00  0.0000000000e+00  0.0000000000e+00  0.0000000000e+00  2.8059575243e+00 
 0.0000000000e+00  8.4178725728e+00  1.4965106796e+01  1.9641702670e+01  5.6119150485e+00 
 0.0000000000e+00  0.0000000000e+00  0.0000000000e+00  6.5472342233e+00  1.8706383495e+00 
 0.0000000000e+00  0.0000000000e+00  0.0000000000e+00  0.0000000000e+00  0.0000000000e+00 
 0.0000000000e+00  0.0000000000e+00  0.0000000000e+00  0.0000000000e+00  0.0000000000e+00 
 1.8706383495e+00  9.3531917475e+00  3.5542128641e+01  3.7412766990e+01  6.5472342233e+00 
 1.8706383495e+00  0.0000000000e+00  0.0000000000e+00  0.0000000000e+00  0.0000000000e+00 
 0.0000000000e+00  1.8706383495e+00  1.8706383495e+00  0.0000000000e+00  0.0000000000e+00 
 0.0000000000e+00  0.0000000000e+00  0.0000000000e+00  0.0000000000e+00  0.0000000000e+00 
 0.0000000000e+00  0.0000000000e+00  0.0000000000e+00  1.6835745146e+01  4.1154043689e+01 
 1.2159149272e+01  2.8059575243e+00  0.0000000000e+00  0.0000000000e+00  0.0000000000e+00 
 0.0000000000e+00  0.0000000000e+00  1.8706383495e+00  1.2159149272e+01  2.2447660194e+01 
 9.3531917475e-01  0.0000000000e+00  0.0000000000e+00  0.0000000000e+00  0.0000000000e+00 
 0.0000000000e+00  0.0000000000e+00  0.0000000000e+00  0.0000000000e+00  0.0000000000e+00 
 1.8706383495e+00  1.1223830097e+01  6.5472342233e+00  0.0000000000e+00  0.0000000000e+00 
 0.0000000000e+00  0.0000000000e+00  0.0000000000e+00  0.0000000000e+00  9.3531917475e+00 
 6.4537023058e+01  9.9143832524e+01  1.5900425971e+01  0.0000000000e+00  0.0000000000e+00 
 0.0000000000e+00  0.0000000000e+00  0.0000000000e+00  0.0000000000e+00  0.0000000000e+00 
 0.0000000000e+00  0.0000000000e+00  0.0000000000e+00  7.4825533980e+00  3.7412766990e+00 
 2.8059575243e+00  0.0000000000e+00  0.0000000000e+00  0.0000000000e+00  9.3531917475e-01 
 1.8706383495e+00  1.4029787621e+01  4.3960001213e+01  7.2954895631e+01  1.2159149272e+01 
 9.3531917475e-01  0.0000000000e+00  0.0000000000e+00  0.0000000000e+00  0.0000000000e+00 
 0.0000000000e+00  0.0000000000e+00  0.0000000000e+00  0.0000000000e+00  0.0000000000e+00 
 1.8706383495e+00  8.4178725728e+00  6.5472342233e+00  9.3531917475e-01  0.0000000000e+00 
 9.3531917475e-01  9.3531917475e-01  1.5900425971e+01  1.1223830097e+01  1.3094468447e+01 
 5.6119150485e+00  3.7412766990e+00  0.0000000000e+00  0.0000000000e+00  0.0000000000e+00 
 0.0000000000e+00  0.0000000000e+00  0.0000000000e+00  0.0000000000e+00  0.0000000000e+00 
 0.0000000000e+00  0.0000000000e+00  0.0000000000e+00  7.4825533980e+00  1.7771064320e+01 
 7.4825533980e+00  0.0000000000e+00  1.7771064320e+01  5.4248512136e+01  5.2377873786e+01 
 1.0288510922e+01  9.3531917475e-01  9.3531917475e-01  0.0000000000e+00  0.0000000000e+00 
 0.0000000000e+00  0.0000000000e+00  0.0000000000e+00  0.0000000000e+00  0.0000000000e+00 
 0.0000000000e+00  0.0000000000e+00  0.0000000000e+00  0.0000000000e+00  0.0000000000e+00 
 9.3531917475e-01  8.4178725728e+00  9.3531917475e+00  1.3094468447e+01  1.8706383495e+01 
 6.7342980582e+01  3.3671490291e+01  5.6119150485e+00  0.0000000000e+00  0.0000000000e+00 
 0.0000000000e+00  0.0000000000e+00  1.8706383495e+00  1.2159149272e+01  7.4825533980e+00 
 9.3531917475e-01  0.0000000000e+00  0.0000000000e+00  0.0000000000e+00  0.0000000000e+00 
 0.0000000000e+00  0.0000000000e+00  0.0000000000e+00  0.0000000000e+00  4.6765958738e+00 
 2.8059575243e+00  3.7412766990e+00  2.0577021845e+01  7.4825533980e+00  9.3531917475e-01 
 0.0000000000e+00  0.0000000000e+00  0.0000000000e+00  9.3531917475e-01  3.7412766990e+00 
 1.9641702670e+01  6.5472342233e+01  1.5900425971e+01  0.0000000000e+00  0.0000000000e+00 
 0.0000000000e+00  0.0000000000e+00  0.0000000000e+00  0.0000000000e+00  0.0000000000e+00 
 0.0000000000e+00  0.0000000000e+00  9.3531917475e-01  0.0000000000e+00  0.0000000000e+00 
 9.3531917475e-01  0.0000000000e+00  0.0000000000e+00  0.0000000000e+00  9.3531917475e-01 
 5.6119150485e+00  1.4965106796e+01  1.6835745146e+01  4.0218724514e+01  1.0288510922e+01 
 9.3531917475e-01  3.7412766990e+00  2.8059575243e+00  0.0000000000e+00  0.0000000000e+00 
 0.0000000000e+00  0.0000000000e+00  0.0000000000e+00  0.0000000000e+00  0.0000000000e+00 
 0.0000000000e+00  0.0000000000e+00  0.0000000000e+00  2.8059575243e+00  9.3531917475e-01 
 4.6765958738e+00  3.7412766990e+00  1.4965106796e+01  1.8706383495e+01  1.1223830097e+01 
 7.4825533980e+00  0.0000000000e+00  0.0000000000e+00  9.3531917475e-01  6.5472342233e+00 
 0.0000000000e+00  0.0000000000e+00  0.0000000000e+00  0.0000000000e+00  0.0000000000e+00 
 0.0000000000e+00  0.0000000000e+00  0.0000000000e+00  0.0000000000e+00  0.0000000000e+00 
 0.0000000000e+00  1.8706383495e+00  1.2159149272e+01  2.0577021845e+01  4.0218724514e+01 
 1.0288510922e+01  0.0000000000e+00  0.0000000000e+00  0.0000000000e+00  0.0000000000e+00 
 9.3531917475e-01  6.5472342233e+00  0.0000000000e+00  0.0000000000e+00  0.0000000000e+00 
 0.0000000000e+00  0.0000000000e+00  0.0000000000e+00  0.0000000000e+00  0.0000000000e+00 
 0.0000000000e+00  0.0000000000e+00  0.0000000000e+00  1.8706383495e+00  8.4178725728e+00 
 6.5472342233e+01  3.4606809466e+01  0.0000000000e+00  0.0000000000e+00  0.0000000000e+00 
 0.0000000000e+00  0.0000000000e+00  0.0000000000e+00  0.0000000000e+00  1.0288510922e+01 
 9.3531917475e-01  0.0000000000e+00  0.0000000000e+00  0.0000000000e+00  0.0000000000e+00 
 0.0000000000e+00  0.0000000000e+00  0.0000000000e+00  0.0000000000e+00  0.0000000000e+00 
 0.0000000000e+00  2.8059575243e+00  4.9571916262e+01  5.7054469660e+01  1.6835745146e+01 
 9.3531917475e-01  0.0000000000e+00  0.0000000000e+00  3.7412766990e+00  1.2159149272e+01 
 4.3960001213e+01  6.4537023058e+01  1.6835745146e+01  0.0000000000e+00  1.8706383495e+00 
 1.8706383495e+00  0.0000000000e+00  0.0000000000e+00  0.0000000000e+00  0.0000000000e+00 
 0.0000000000e+00  0.0000000000e+00  0.0000000000e+00  0.0000000000e+00  1.3094468447e+01 
 1.3094468447e+01  6.5472342233e+00  9.3531917475e-01  0.0000000000e+00  9.3531917475e-01 
 5.6119150485e+00  3.0865532767e+01  6.5472342233e+01  3.1800851942e+01  6.5472342233e+00 
 0.0000000000e+00  9.3531917475e-01  0.0000000000e+00  0.0000000000e+00  0.0000000000e+00 
 0.0000000000e+00  0.0000000000e+00  0.0000000000e+00  0.0000000000e+00  0.0000000000e+00 
 0.0000000000e+00  0.0000000000e+00  1.8706383495e+00  2.8059575243e+00  9.3531917475e-01 
 2.8059575243e+00  8.4178725728e+00  3.5542128641e+01  4.7701277912e+01  2.6188936893e+01 
 9.3531917475e-01  0.0000000000e+00  0.0000000000e+00  9.3531917475e-01  0.0000000000e+00 
 0.0000000000e+00  0.0000000000e+00  0.0000000000e+00  0.0000000000e+00  0.0000000000e+00 
 0.0000000000e+00  0.0000000000e+00  0.0000000000e+00  0.0000000000e+00  9.3531917475e-01 
 9.3531917475e-01  0.0000000000e+00  1.4029787621e+01  5.1442554611e+01  7.3890214806e+01 
 1.4965106796e+01  9.3531917475e-01  0.0000000000e+00  0.0000000000e+00  0.0000000000e+00 
 0.0000000000e+00  9.3531917475e-01  9.3531917475e-01  0.0000000000e+00  1.8706383495e+00 
 9.3531917475e-01  0.0000000000e+00  0.0000000000e+00  0.0000000000e+00  0.0000000000e+00 
 0.0000000000e+00  0.0000000000e+00  0.0000000000e+00  0.0000000000e+00  1.5900425971e+01 
 6.7342980582e+01  4.3960001213e+01  9.3531917475e-01  0.0000000000e+00  0.0000000000e+00 
 0.0000000000e+00  0.0000000000e+00  0.0000000000e+00  0.0000000000e+00  2.8059575243e+00 
 9.3531917475e-01  9.3531917475e+00  2.8059575243e+00  0.0000000000e+00  0.0000000000e+00 
 0.0000000000e+00  0.0000000000e+00  0.0000000000e+00  0.0000000000e+00  0.0000000000e+00 
 0.0000000000e+00  1.8706383495e+00  7.4825533980e+00  6.5472342233e+00  0.0000000000e+00 
 0.0000000000e+00  0.0000000000e+00  0.0000000000e+00  0.0000000000e+00  0.0000000000e+00 
 0.0000000000e+00  9.3531917475e+00  6.5472342233e+00  2.8059575243e+01  1.1223830097e+01 
 1.8706383495e+00  0.0000000000e+00  0.0000000000e+00  0.0000000000e+00  0.0000000000e+00 