Li23 P4 S19 Cl5
 1.00 
 9.978016 0.0 -0.150717 
 0.139979 10.034983 -0.200826 
 0.0 0.0 9.969021 
 Li P S Cl
 23 4 19 5
direct
 0.06926500  0.19655700  0.70884600 
 0.61507800  0.99118400  0.21359100 
 0.96388400  0.70018200  0.75123300 
 0.45446800  0.76408400  0.14282600 
 0.93866600  0.09434000  0.31706500 
 0.31463100  0.16690200  0.94503900 
 0.01822800  0.73102600  0.17433700 
 0.50870300  0.96955700  0.80773700 
 0.80851500  0.20495700  0.49143800 
 0.71138400  0.51977200  0.67425400 
 0.83321400  0.97757000  0.73032500 
 0.98852700  0.38296200  0.11216500 
 0.14779200  0.85249000  0.48502800 
 0.23264000  0.52012900  0.84968800 
 0.24528100  0.55801900  0.10254200 
 0.27192600  0.96972300  0.16776200 
 0.35990000  0.32044900  0.52580600 
 0.68659500  0.76616100  0.96588800 
 0.72162900  0.46796600  0.29745100 
 0.54453100  0.25523800  0.31147500 
 0.33082700  0.61727500  0.43425700 
 0.66923700  0.18204200  0.02980300 
 0.76815400  0.83449400  0.45326400 
 0.96623700  0.03568300  0.96470400 
 0.02275900  0.49785400  0.49984900 
 0.46957600  0.99082500  0.49849700 
 0.52904800  0.48636400  0.99039700 
 0.10478600  0.13393800  0.10272700 
 0.15973600  0.62876900  0.61146300 
 0.61099700  0.08046800  0.61426000 
 0.69679000  0.57768900  0.08469400 
 0.85335400  0.91150200  0.08277600 
 0.91356400  0.40295800  0.63553300 
 0.36329600  0.88299300  0.62180300 
 0.41948500  0.37950700  0.12529000 
 0.86071000  0.18126700  0.87142700 
 0.92084600  0.62759000  0.36594200 
 0.35839100  0.12452600  0.37721100 
 0.38678600  0.63665000  0.94572100 
 0.06275500  0.91259700  0.80509000 
 0.12793700  0.37144200  0.39902900 
 0.56903100  0.86070800  0.37296800 
 0.61442400  0.37404600  0.82614500 
 0.24426700  0.73835000  0.25450900 
 0.75124000  0.21640000  0.25641400 
 0.50379900  0.01398700  0.03054400 
 0.27037600  0.28101300  0.75152800 
 0.70838300  0.77429100  0.70774400 
 0.53188900  0.46933500  0.46037600 
 0.95716000  0.00507200  0.49053000 
 0.05275100  0.53023600  0.97780600 
 
 20 21 20 
 0.0000000000e+00  0.0000000000e+00  0.0000000000e+00  0.0000000000e+00  0.0000000000e+00 
 1.9716873249e+00  4.9292183123e+00  0.0000000000e+00  0.0000000000e+00  0.0000000000e+00 
 0.0000000000e+00  0.0000000000e+00  0.0000000000e+00  0.0000000000e+00  1.9716873249e+00 
 0.0000000000e+00  0.0000000000e+00  0.0000000000e+00  0.0000000000e+00  0.0000000000e+00 
 0.0000000000e+00  0.0000000000e+00  0.0000000000e+00  0.0000000000e+00  0.0000000000e+00 
 2.9575309874e+00  8.8725929621e+00  9.8584366245e-01  0.0000000000e+00  0.0000000000e+00 
 0.0000000000e+00  0.0000000000e+00  0.0000000000e+00  9.8584366245e-01  6.9009056372e+00 
 1.9716873249e+00  0.0000000000e+00  0.0000000000e+00  0.0000000000e+00  0.0000000000e+00 
 0.0000000000e+00  0.0000000000e+00  0.0000000000e+00  0.0000000000e+00  0.0000000000e+00 
 3.9433746498e+00  1.0844280287e+01  1.9716873249e+00  0.0000000000e+00  0.0000000000e+00 
 0.0000000000e+00  0.0000000000e+00  0.0000000000e+00  2.9575309874e+00  3.3518684523e+01 
 9.8584366245e+00  0.0000000000e+00  0.0000000000e+00  0.0000000000e+00  0.0000000000e+00 
 0.0000000000e+00  0.0000000000e+00  0.0000000000e+00  0.0000000000e+00  9.8584366245e-01 
 4.9292183123e+00  4.8306339460e+01  1.3801811274e+01  9.8584366245e-01  0.0000000000e+00 
 0.0000000000e+00  9.8584366245e-01  2.9575309874e+00  4.4362964810e+01  1.0548527188e+02 
 2.4646091561e+01  0.0000000000e+00  0.0000000000e+00  0.0000000000e+00  0.0000000000e+00 
 0.0000000000e+00  0.0000000000e+00  0.0000000000e+00  0.0000000000e+00  9.8584366245e-01 
 3.9433746498e+00  7.2952431022e+01  6.3093994397e+01  1.3801811274e+01  3.9433746498e+00 
 0.0000000000e+00  5.9150619747e+00  2.2674404236e+01  1.4590486204e+02  2.0899885644e+02 
 5.6193088760e+01  4.9292183123e+00  0.0000000000e+00  0.0000000000e+00  0.0000000000e+00 
 0.0000000000e+00  0.0000000000e+00  1.9716873249e+00  1.9716873249e+00  2.9575309874e+00 
 3.9433746498e+00  7.8867492996e+00  1.4787654937e+01  8.8725929621e+00  8.8725929621e+00 
 3.9433746498e+00  4.9292183123e+00  9.8584366245e+00  3.2532840861e+01  7.3938274684e+01 
 6.1122307072e+01  3.7462059173e+01  1.8731029587e+01  1.5773498599e+01  2.9575309874e+00 
 9.8584366245e-01  6.9009056372e+00  8.8725929621e+00  2.4646091561e+01  3.3518684523e+01 
 9.8584366245e+00  8.8725929621e+00  0.0000000000e+00  9.8584366245e-01  0.0000000000e+00 
 0.0000000000e+00  0.0000000000e+00  2.9575309874e+00  1.9716873249e+00  1.6759342262e+01 
 4.4362964810e+01  8.5768398634e+01  6.2108150735e+01  2.2674404236e+01  2.9575309874e+00 
 0.0000000000e+00  0.0000000000e+00  5.9150619747e+00  2.3660247899e+01  3.1546997199e+01 
 6.9009056372e+00  0.0000000000e+00  0.0000000000e+00  0.0000000000e+00  0.0000000000e+00 
 0.0000000000e+00  0.0000000000e+00  0.0000000000e+00  0.0000000000e+00  1.9716873249e+00 
 2.8589466211e+01  6.9994900034e+01  1.4787654937e+01  1.9716873249e+00  0.0000000000e+00 
 0.0000000000e+00  0.0000000000e+00  0.0000000000e+00  2.9575309874e+00  4.9292183123e+00 
 2.9575309874e+00  0.0000000000e+00  0.0000000000e+00  0.0000000000e+00  0.0000000000e+00 
 0.0000000000e+00  0.0000000000e+00  0.0000000000e+00  0.0000000000e+00  0.0000000000e+00 
 1.3801811274e+01  1.3801811274e+01  1.9716873249e+00  0.0000000000e+00  0.0000000000e+00 
 0.0000000000e+00  0.0000000000e+00  0.0000000000e+00  0.0000000000e+00  1.9716873249e+00 
 9.8584366245e-01  0.0000000000e+00  0.0000000000e+00  0.0000000000e+00  0.0000000000e+00 
 0.0000000000e+00  0.0000000000e+00  0.0000000000e+00  0.0000000000e+00  0.0000000000e+00 
 3.9433746498e+00  5.9150619747e+00  0.0000000000e+00  0.0000000000e+00  0.0000000000e+00 
 0.0000000000e+00  0.0000000000e+00  0.0000000000e+00  0.0000000000e+00  1.9716873249e+00 
 0.0000000000e+00  0.0000000000e+00  0.0000000000e+00  0.0000000000e+00  0.0000000000e+00 
 0.0000000000e+00  0.0000000000e+00  0.0000000000e+00  0.0000000000e+00  0.0000000000e+00 
 9.8584366245e-01  0.0000000000e+00  0.0000000000e+00  0.0000000000e+00  0.0000000000e+00 
 0.0000000000e+00  0.0000000000e+00  0.0000000000e+00  0.0000000000e+00  5.9150619747e+00 
 7.8867492996e+00  0.0000000000e+00  0.0000000000e+00  0.0000000000e+00  0.0000000000e+00 
 0.0000000000e+00  0.0000000000e+00  0.0000000000e+00  0.0000000000e+00  0.0000000000e+00 
 0.0000000000e+00  0.0000000000e+00  0.0000000000e+00  0.0000000000e+00  0.0000000000e+00 
 0.0000000000e+00  0.0000000000e+00  9.8584366245e-01  4.9292183123e+00  3.5490371848e+01 
 2.3660247899e+01  0.0000000000e+00  0.0000000000e+00  0.0000000000e+00  0.0000000000e+00 
 0.0000000000e+00  0.0000000000e+00  0.0000000000e+00  0.0000000000e+00  0.0000000000e+00 
 0.0000000000e+00  0.0000000000e+00  1.9716873249e+00  0.0000000000e+00  0.0000000000e+00 
 0.0000000000e+00  0.0000000000e+00  1.9716873249e+00  2.5631935224e+01  7.4924118347e+01 
 3.9433746498e+01  0.0000000000e+00  0.0000000000e+00  0.0000000000e+00  0.0000000000e+00 
 0.0000000000e+00  0.0000000000e+00  0.0000000000e+00  0.0000000000e+00  0.0000000000e+00 
 0.0000000000e+00  1.7745185924e+01  1.8731029587e+01  0.0000000000e+00  0.0000000000e+00 
 9.8584366245e-01  2.9575309874e+00  8.8725929621e+00  6.8023212709e+01  1.3407473809e+02 
 4.8306339460e+01  1.0844280287e+01  1.9716873249e+00  0.0000000000e+00  0.0000000000e+00 
 0.0000000000e+00  0.0000000000e+00  0.0000000000e+00  0.0000000000e+00  1.9716873249e+00 
 6.9009056372e+00  3.3518684523e+01  1.8731029587e+01  1.9716873249e+00  3.9433746498e+00 
 0.0000000000e+00  3.9433746498e+00  1.2815967612e+01  2.7603622549e+01  5.8164776085e+01 
 6.4079838060e+01  3.8447902836e+01  1.3801811274e+01  8.8725929621e+00  2.9575309874e+00 
 0.0000000000e+00  9.8584366245e-01  9.8584366245e-01  5.9150619747e+00  2.1688560574e+01 
 1.4787654937e+01  6.9009056372e+00  4.9292183123e+00  0.0000000000e+00  1.9716873249e+00 
 0.0000000000e+00  0.0000000000e+00  0.0000000000e+00  0.0000000000e+00  6.9009056372e+00 
 3.1546997199e+01  1.0844280287e+02  6.8023212709e+01  3.7462059173e+01  1.5773498599e+01 
 5.9150619747e+00  6.9009056372e+00  2.2674404236e+01  9.0697616946e+01  1.0844280287e+02 
 9.8584366245e+00  9.8584366245e-01  0.0000000000e+00  0.0000000000e+00  0.0000000000e+00 
 0.0000000000e+00  0.0000000000e+00  0.0000000000e+00  0.0000000000e+00  3.9433746498e+00 
 2.6617778886e+01  1.0154189723e+02  4.4362964810e+01  8.8725929621e+00  3.9433746498e+00 
 9.8584366245e-01  9.8584366245e-01  6.9009056372e+00  8.9711773283e+01  7.9853336659e+01 
 1.0844280287e+01  0.0000000000e+00  0.0000000000e+00  0.0000000000e+00  0.0000000000e+00 
 0.0000000000e+00  0.0000000000e+00  0.0000000000e+00  0.0000000000e+00  1.9716873249e+00 
 1.9716873249e+01  3.0561153536e+01  4.9292183123e+00  0.0000000000e+00  0.0000000000e+00 
 0.0000000000e+00  0.0000000000e+00  9.8584366245e-01  8.8725929621e+00  1.9716873249e+01 
 5.9150619747e+00  0.0000000000e+00  0.0000000000e+00  0.0000000000e+00  0.0000000000e+00 
 0.0000000000e+00  0.0000000000e+00  0.0000000000e+00  0.0000000000e+00  0.0000000000e+00 
 9.8584366245e-01  1.6759342262e+01  0.0000000000e+00  0.0000000000e+00  0.0000000000e+00 
 0.0000000000e+00  0.0000000000e+00  0.0000000000e+00  2.9575309874e+00  6.9009056372e+00 
 1.9716873249e+00  0.0000000000e+00  0.0000000000e+00  0.0000000000e+00  0.0000000000e+00 
 0.0000000000e+00  0.0000000000e+00  0.0000000000e+00  0.0000000000e+00  0.0000000000e+00 
 9.8584366245e-01  1.9716873249e+00  0.0000000000e+00  0.0000000000e+00  0.0000000000e+00 
 0.0000000000e+00  0.0000000000e+00  0.0000000000e+00  9.8584366245e-01  4.9292183123e+00 
 1.9716873249e+00  0.0000000000e+00  0.0000000000e+00  0.0000000000e+00  0.0000000000e+00 
 0.0000000000e+00  0.0000000000e+00  0.0000000000e+00  0.0000000000e+00  0.0000000000e+00 
 2.9575309874e+00  7.8867492996e+00  0.0000000000e+00  0.0000000000e+00  0.0000000000e+00 
 0.0000000000e+00  0.0000000000e+00  0.0000000000e+00  0.0000000000e+00  2.9575309874e+00 
 9.8584366245e-01  0.0000000000e+00  0.0000000000e+00  0.0000000000e+00  0.0000000000e+00 
 0.0000000000e+00  0.0000000000e+00  0.0000000000e+00  0.0000000000e+00  0.0000000000e+00 
 0.0000000000e+00  6.9009056372e+00  1.9716873249e+00  0.0000000000e+00  0.0000000000e+00 
 0.0000000000e+00  0.0000000000e+00  0.0000000000e+00  2.9575309874e+00  3.1546997199e+01 
 1.5773498599e+01  9.8584366245e-01  0.0000000000e+00  0.0000000000e+00  0.0000000000e+00 
 0.0000000000e+00  0.0000000000e+00  0.0000000000e+00  0.0000000000e+00  0.0000000000e+00 
 0.0000000000e+00  3.9433746498e+00  2.9575309874e+00  0.0000000000e+00  0.0000000000e+00 
 0.0000000000e+00  0.0000000000e+00  0.0000000000e+00  2.9575309874e+00  3.9433746498e+01 
 3.2532840861e+01  3.9433746498e+00  0.0000000000e+00  0.0000000000e+00  0.0000000000e+00 
 0.0000000000e+00  0.0000000000e+00  0.0000000000e+00  0.0000000000e+00  0.0000000000e+00 
 0.0000000000e+00  8.8725929621e+00  2.2674404236e+01  2.9575309874e+00  9.8584366245e-01 
 9.8584366245e-01  0.0000000000e+00  3.9433746498e+00  1.4787654937e+01  5.3235557773e+01 
 2.9575309874e+01  1.9716873249e+00  0.0000000000e+00  0.0000000000e+00  0.0000000000e+00 
 0.0000000000e+00  0.0000000000e+00  0.0000000000e+00  0.0000000000e+00  0.0000000000e+00 
 1.9716873249e+00  1.6759342262e+01  1.2815967612e+01  1.0844280287e+01  6.9009056372e+00 
 1.1830123949e+01  4.4362964810e+01  4.8306339460e+01  4.2391277486e+01  6.2108150735e+01 
 2.9575309874e+01  1.0844280287e+01  2.9575309874e+00  9.8584366245e-01  0.0000000000e+00 
 0.0000000000e+00  0.0000000000e+00  0.0000000000e+00  0.0000000000e+00  1.9716873249e+00 
 3.9433746498e+00  4.9292183123e+00  1.9716873249e+00  0.0000000000e+00  2.9575309874e+00 
 3.9433746498e+00  1.8731029587e+01  2.8589466211e+01  1.6759342262e+01  2.0702716912e+01 
 1.5773498599e+01  2.0702716912e+01  1.4787654937e+01  1.8731029587e+01  1.1830123949e+01 
 1.9716873249e+00  4.9292183123e+00  2.9575309874e+00  2.9575309874e+00  9.8584366245e+00 
 4.9292183123e+00  0.0000000000e+00  0.0000000000e+00  0.0000000000e+00  0.0000000000e+00 
 0.0000000000e+00  0.0000000000e+00  2.9575309874e+00  0.0000000000e+00  9.8584366245e-01 
 1.8731029587e+01  2.9575309874e+01  3.6476215511e+01  2.2674404236e+01  1.6759342262e+01 
 0.0000000000e+00  0.0000000000e+00  9.8584366245e-01  4.9292183123e+00  8.8725929621e+00 
 9.8584366245e-01  0.0000000000e+00  0.0000000000e+00  0.0000000000e+00  0.0000000000e+00 
 0.0000000000e+00  0.0000000000e+00  0.0000000000e+00  0.0000000000e+00  9.8584366245e-01 
 1.8731029587e+01  4.0419590161e+01  2.2674404236e+01  8.8725929621e+00  9.8584366245e-01 
 0.0000000000e+00  0.0000000000e+00  0.0000000000e+00  0.0000000000e+00  0.0000000000e+00 
 9.8584366245e-01  0.0000000000e+00  0.0000000000e+00  0.0000000000e+00  0.0000000000e+00 
 0.0000000000e+00  0.0000000000e+00  0.0000000000e+00  0.0000000000e+00  2.9575309874e+00 
 3.8447902836e+01  5.5207245097e+01  1.2815967612e+01  2.9575309874e+00  0.0000000000e+00 
 0.0000000000e+00  0.0000000000e+00  0.0000000000e+00  0.0000000000e+00  0.0000000000e+00 
 0.0000000000e+00  0.0000000000e+00  0.0000000000e+00  0.0000000000e+00  0.0000000000e+00 
 0.0000000000e+00  0.0000000000e+00  0.0000000000e+00  0.0000000000e+00  0.0000000000e+00 
 1.2815967612e+01  2.1688560574e+01  0.0000000000e+00  0.0000000000e+00  0.0000000000e+00 
 0.0000000000e+00  0.0000000000e+00  0.0000000000e+00  0.0000000000e+00  1.9716873249e+00 
 1.9716873249e+00  0.0000000000e+00  0.0000000000e+00  0.0000000000e+00  0.0000000000e+00 
 0.0000000000e+00  0.0000000000e+00  0.0000000000e+00  0.0000000000e+00  0.0000000000e+00 
 2.9575309874e+00  2.9575309874e+00  0.0000000000e+00  0.0000000000e+00  0.0000000000e+00 
 0.0000000000e+00  0.0000000000e+00  0.0000000000e+00  9.8584366245e-01  2.2674404236e+01 
 2.3660247899e+01  9.8584366245e-01  0.0000000000e+00  0.0000000000e+00  0.0000000000e+00 
 0.0000000000e+00  0.0000000000e+00  0.0000000000e+00  0.0000000000e+00  0.0000000000e+00 
 0.0000000000e+00  0.0000000000e+00  0.0000000000e+00  0.0000000000e+00  0.0000000000e+00 
 0.0000000000e+00  0.0000000000e+00  0.0000000000e+00  7.8867492996e+00  7.2952431022e+01 
 8.2810867646e+01  3.9433746498e+00  0.0000000000e+00  0.0000000000e+00  0.0000000000e+00 
 0.0000000000e+00  0.0000000000e+00  0.0000000000e+00  0.0000000000e+00  0.0000000000e+00 
 0.0000000000e+00  0.0000000000e+00  0.0000000000e+00  0.0000000000e+00  0.0000000000e+00 
 0.0000000000e+00  1.9716873249e+00  1.2815967612e+01  3.0561153536e+01  5.7178932422e+01 
 3.8447902836e+01  6.9009056372e+00  0.0000000000e+00  0.0000000000e+00  0.0000000000e+00 
 0.0000000000e+00  0.0000000000e+00  0.0000000000e+00  0.0000000000e+00  0.0000000000e+00 
 0.0000000000e+00  1.9716873249e+00  3.9433746498e+00  0.0000000000e+00  9.8584366245e-01 
 9.8584366245e-01  1.4787654937e+01  2.6617778886e+01  5.5207245097e+01  6.3093994397e+01 
 2.6617778886e+01  5.9150619747e+00  1.9716873249e+00  0.0000000000e+00  9.8584366245e-01 
 0.0000000000e+00  0.0000000000e+00  0.0000000000e+00  0.0000000000e+00  0.0000000000e+00 
 0.0000000000e+00  3.9433746498e+00  2.9575309874e+00  0.0000000000e+00  0.0000000000e+00 
 9.8584366245e-01  2.4646091561e+01  2.0702716912e+01  2.4646091561e+01  1.9716873249e+01 
 1.4787654937e+01  1.4787654937e+01  1.4787654937e+01  2.0702716912e+01  1.2815967612e+01 
 1.9716873249e+00  0.0000000000e+00  0.0000000000e+00  0.0000000000e+00  9.8584366245e-01 
 1.9716873249e+00  0.0000000000e+00  0.0000000000e+00  0.0000000000e+00  0.0000000000e+00 
 0.0000000000e+00  1.9716873249e+00  0.0000000000e+00  3.9433746498e+00  3.9433746498e+00 
 1.6759342262e+01  4.0419590161e+01  3.4504528186e+01  5.5207245097e+01  2.9575309874e+01 
 1.0844280287e+01  9.8584366245e-01  9.8584366245e-01  1.0844280287e+01  1.0844280287e+01 
 0.0000000000e+00  0.0000000000e+00  0.0000000000e+00  0.0000000000e+00  0.0000000000e+00 
 0.0000000000e+00  0.0000000000e+00  0.0000000000e+00  0.0000000000e+00  0.0000000000e+00 
 1.3801811274e+01  4.7320495798e+01  2.6617778886e+01  8.8725929621e+00  9.8584366245e-01 
 3.9433746498e+00  4.9292183123e+00  9.8584366245e+00  2.6617778886e+01  2.0702716912e+01 
 3.9433746498e+00  0.0000000000e+00  0.0000000000e+00  0.0000000000e+00  0.0000000000e+00 
 0.0000000000e+00  0.0000000000e+00  0.0000000000e+00  0.0000000000e+00  1.9716873249e+00 
 2.1688560574e+01  6.2108150735e+01  4.9292183123e+00  0.0000000000e+00  0.0000000000e+00 
 0.0000000000e+00  0.0000000000e+00  9.8584366245e-01  5.9150619747e+00  8.8725929621e+00 
 9.8584366245e-01  0.0000000000e+00  0.0000000000e+00  0.0000000000e+00  0.0000000000e+00 
 0.0000000000e+00  0.0000000000e+00  0.0000000000e+00  0.0000000000e+00  0.0000000000e+00 
 2.5631935224e+01  3.8447902836e+01  1.9716873249e+00  0.0000000000e+00  0.0000000000e+00 
 0.0000000000e+00  0.0000000000e+00  0.0000000000e+00  0.0000000000e+00  9.8584366245e-01 
 0.0000000000e+00  0.0000000000e+00  0.0000000000e+00  0.0000000000e+00  0.0000000000e+00 
 0.0000000000e+00  0.0000000000e+00  0.0000000000e+00  0.0000000000e+00  0.0000000000e+00 
 4.9292183123e+00  2.9575309874e+00  0.0000000000e+00  0.0000000000e+00  0.0000000000e+00 
 0.0000000000e+00  0.0000000000e+00  0.0000000000e+00  0.0000000000e+00  1.9716873249e+00 
 0.0000000000e+00  0.0000000000e+00  0.0000000000e+00  0.0000000000e+00  0.0000000000e+00 
 0.0000000000e+00  0.0000000000e+00  0.0000000000e+00  0.0000000000e+00  0.0000000000e+00 
 9.8584366245e+00  1.1830123949e+01  5.9150619747e+00  0.0000000000e+00  0.0000000000e+00 
 0.0000000000e+00  0.0000000000e+00  9.8584366245e-01  3.9433746498e+00  8.8725929621e+00 
 0.0000000000e+00  0.0000000000e+00  0.0000000000e+00  0.0000000000e+00  0.0000000000e+00 
 0.0000000000e+00  0.0000000000e+00  0.0000000000e+00  0.0000000000e+00  0.0000000000e+00 
 1.9716873249e+00  3.9433746498e+00  5.9150619747e+00  9.8584366245e-01  0.0000000000e+00 
 0.0000000000e+00  0.0000000000e+00  0.0000000000e+00  1.6759342262e+01  3.4504528186e+01 
 1.4787654937e+01  0.0000000000e+00  0.0000000000e+00  0.0000000000e+00  0.0000000000e+00 
 0.0000000000e+00  0.0000000000e+00  0.0000000000e+00  0.0000000000e+00  0.0000000000e+00 
 0.0000000000e+00  1.9716873249e+00  4.9292183123e+00  3.9433746498e+00  0.0000000000e+00 
 0.0000000000e+00  0.0000000000e+00  0.0000000000e+00  9.8584366245e+00  1.3801811274e+01 
 1.8731029587e+01  0.0000000000e+00  0.0000000000e+00  0.0000000000e+00  0.0000000000e+00 
 0.0000000000e+00  0.0000000000e+00  0.0000000000e+00  0.0000000000e+00  0.0000000000e+00 
 0.0000000000e+00  2.9575309874e+00  5.9150619747e+00  1.1830123949e+01  6.9009056372e+00 
 4.9292183123e+00  6.9009056372e+00  2.9575309874e+00  3.9433746498e+00  9.8584366245e-01 
 9.8584366245e-01  0.0000000000e+00  9.8584366245e-01  2.9575309874e+00  0.0000000000e+00 
 0.0000000000e+00  0.0000000000e+00  0.0000000000e+00  0.0000000000e+00  0.0000000000e+00 
 0.0000000000e+00  4.9292183123e+00  4.9292183123e+00  3.9433746498e+00  6.9009056372e+00 
 2.8589466211e+01  5.3235557773e+01  1.7745185924e+01  3.9433746498e+00  9.8584366245e-01 
 0.0000000000e+00  0.0000000000e+00  1.9716873249e+00  0.0000000000e+00  0.0000000000e+00 
 1.9716873249e+00  9.8584366245e-01  0.0000000000e+00  0.0000000000e+00  0.0000000000e+00 
 0.0000000000e+00  9.8584366245e-01  0.0000000000e+00  0.0000000000e+00  0.0000000000e+00 
 7.8867492996e+00  3.4504528186e+01  6.9009056372e+00  9.8584366245e-01  0.0000000000e+00 
 0.0000000000e+00  0.0000000000e+00  9.8584366245e-01  9.8584366245e+00  1.4787654937e+01 
 1.9716873249e+00  6.9009056372e+00  0.0000000000e+00  0.0000000000e+00  0.0000000000e+00 
 9.8584366245e-01  0.0000000000e+00  0.0000000000e+00  0.0000000000e+00  0.0000000000e+00 
 0.0000000000e+00  0.0000000000e+00  2.9575309874e+00  0.0000000000e+00  0.0000000000e+00 
 0.0000000000e+00  9.8584366245e-01  4.9292183123e+00  3.1546997199e+01  2.6617778886e+01 
 1.9716873249e+00  1.9716873249e+00  0.0000000000e+00  2.9575309874e+00  2.9575309874e+00 
 0.0000000000e+00  0.0000000000e+00  0.0000000000e+00  0.0000000000e+00  0.0000000000e+00 
 0.0000000000e+00  0.0000000000e+00  0.0000000000e+00  0.0000000000e+00  0.0000000000e+00 
 5.9150619747e+00  1.9716873249e+00  9.8584366245e+00  2.2674404236e+01  1.8731029587e+01 
 9.8584366245e-01  0.0000000000e+00  0.0000000000e+00  0.0000000000e+00  0.0000000000e+00 
 0.0000000000e+00  0.0000000000e+00  0.0000000000e+00  0.0000000000e+00  0.0000000000e+00 
 0.0000000000e+00  0.0000000000e+00  0.0000000000e+00  0.0000000000e+00  0.0000000000e+00 
 1.1830123949e+01  2.9575309874e+01  1.6759342262e+01  1.4787654937e+01  4.9292183123e+00 
 0.0000000000e+00  0.0000000000e+00  0.0000000000e+00  0.0000000000e+00  0.0000000000e+00 
 0.0000000000e+00  0.0000000000e+00  0.0000000000e+00  0.0000000000e+00  0.0000000000e+00 
 0.0000000000e+00  0.0000000000e+00  0.0000000000e+00  0.0000000000e+00  1.9716873249e+00 
 3.5490371848e+01  4.6334652135e+01  8.8725929621e+00  1.9716873249e+00  0.0000000000e+00 
 0.0000000000e+00  0.0000000000e+00  0.0000000000e+00  0.0000000000e+00  4.9292183123e+00 
 9.8584366245e-01  9.8584366245e-01  0.0000000000e+00  0.0000000000e+00  0.0000000000e+00 
 0.0000000000e+00  0.0000000000e+00  0.0000000000e+00  0.0000000000e+00  0.0000000000e+00 
 1.0844280287e+01  1.9716873249e+01  1.9716873249e+00  0.0000000000e+00  0.0000000000e+00 
 0.0000000000e+00  0.0000000000e+00  0.0000000000e+00  9.8584366245e+00  3.1546997199e+01 
 1.8731029587e+01  4.9292183123e+00  9.8584366245e-01  0.0000000000e+00  0.0000000000e+00 
 0.0000000000e+00  0.0000000000e+00  0.0000000000e+00  0.0000000000e+00  0.0000000000e+00 
 0.0000000000e+00  0.0000000000e+00  0.0000000000e+00  0.0000000000e+00  0.0000000000e+00 
 0.0000000000e+00  0.0000000000e+00  1.9716873249e+00  3.9433746498e+00  3.2532840861e+01 
 3.2532840861e+01  4.9292183123e+00  0.0000000000e+00  0.0000000000e+00  0.0000000000e+00 
 0.0000000000e+00  0.0000000000e+00  0.0000000000e+00  0.0000000000e+00  0.0000000000e+00 
 0.0000000000e+00  9.8584366245e-01  9.8584366245e-01  0.0000000000e+00  0.0000000000e+00 
 2.9575309874e+00  6.9009056372e+00  8.8725929621e+00  2.9575309874e+00  9.8584366245e-01 
 6.9009056372e+00  9.8584366245e-01  0.0000000000e+00  0.0000000000e+00  0.0000000000e+00 
 0.0000000000e+00  0.0000000000e+00  0.0000000000e+00  0.0000000000e+00  0.0000000000e+00 
 0.0000000000e+00  9.8584366245e-01  1.9716873249e+00  1.9716873249e+00  1.9716873249e+00 
 1.6759342262e+01  2.8589466211e+01  2.9575309874e+01  4.9292183123e+00  0.0000000000e+00 
 0.0000000000e+00  0.0000000000e+00  1.9716873249e+00  0.0000000000e+00  0.0000000000e+00 
 0.0000000000e+00  0.0000000000e+00  0.0000000000e+00  0.0000000000e+00  0.0000000000e+00 
 0.0000000000e+00  0.0000000000e+00  9.8584366245e-01  0.0000000000e+00  9.8584366245e-01 
 1.5773498599e+01  3.7462059173e+01  7.8867492996e+00  0.0000000000e+00  0.0000000000e+00 
 0.0000000000e+00  0.0000000000e+00  9.8584366245e-01  2.0702716912e+01  3.2532840861e+01 
 1.1830123949e+01  0.0000000000e+00  0.0000000000e+00  0.0000000000e+00  0.0000000000e+00 
 0.0000000000e+00  0.0000000000e+00  0.0000000000e+00  0.0000000000e+00  0.0000000000e+00 
 9.8584366245e-01  2.9575309874e+00  9.8584366245e+00  9.8584366245e-01  0.0000000000e+00 
 0.0000000000e+00  9.8584366245e-01  6.9009056372e+00  3.0561153536e+01  6.2108150735e+01 
 4.8306339460e+01  6.9009056372e+00  2.9575309874e+00  9.8584366245e-01  9.8584366245e-01 
 0.0000000000e+00  0.0000000000e+00  0.0000000000e+00  0.0000000000e+00  0.0000000000e+00 
 0.0000000000e+00  0.0000000000e+00  0.0000000000e+00  0.0000000000e+00  0.0000000000e+00 
 1.9716873249e+00  2.9575309874e+00  2.9575309874e+00  1.0844280287e+01  9.8584366245e+00 
 6.9009056372e+00  8.8725929621e+00  1.3801811274e+01  1.4787654937e+01  3.9433746498e+00 
 0.0000000000e+00  0.0000000000e+00  0.0000000000e+00  0.0000000000e+00  0.0000000000e+00 
 0.0000000000e+00  0.0000000000e+00  0.0000000000e+00  0.0000000000e+00  9.8584366245e-01 
 5.9150619747e+00  9.8584366245e+00  9.8584366245e+00  9.8584366245e-01  0.0000000000e+00 
 0.0000000000e+00  0.0000000000e+00  2.9575309874e+00  1.2815967612e+01  9.8584366245e-01 
 0.0000000000e+00  0.0000000000e+00  0.0000000000e+00  0.0000000000e+00  0.0000000000e+00 
 0.0000000000e+00  0.0000000000e+00  0.0000000000e+00  0.0000000000e+00  1.9716873249e+00 
 3.0561153536e+01  5.4221401435e+01  1.7745185924e+01  0.0000000000e+00  0.0000000000e+00 
 0.0000000000e+00  0.0000000000e+00  0.0000000000e+00  2.9575309874e+00  4.9292183123e+00 
 0.0000000000e+00  0.0000000000e+00  0.0000000000e+00  0.0000000000e+00  0.0000000000e+00 
 0.0000000000e+00  0.0000000000e+00  0.0000000000e+00  0.0000000000e+00  0.0000000000e+00 
 1.7745185924e+01  5.4221401435e+01  1.1830123949e+01  0.0000000000e+00  0.0000000000e+00 
 0.0000000000e+00  0.0000000000e+00  0.0000000000e+00  9.8584366245e-01  3.9433746498e+00 
 0.0000000000e+00  0.0000000000e+00  0.0000000000e+00  0.0000000000e+00  0.0000000000e+00 
 0.0000000000e+00  0.0000000000e+00  0.0000000000e+00  0.0000000000e+00  9.8584366245e-01 
 9.8584366245e+00  6.4079838060e+01  2.7603622549e+01  2.9575309874e+00  0.0000000000e+00 
 0.0000000000e+00  0.0000000000e+00  3.9433746498e+00  1.9716873249e+01  6.9009056372e+01 
 1.0844280287e+01  0.0000000000e+00  0.0000000000e+00  0.0000000000e+00  0.0000000000e+00 
 0.0000000000e+00  0.0000000000e+00  0.0000000000e+00  0.0000000000e+00  0.0000000000e+00 
 1.9716873249e+00  2.5631935224e+01  8.8725929621e+00  9.8584366245e-01  0.0000000000e+00 
 0.0000000000e+00  9.8584366245e-01  8.8725929621e+00  3.8447902836e+01  6.0136463410e+01 
 1.7745185924e+01  0.0000000000e+00  0.0000000000e+00  0.0000000000e+00  0.0000000000e+00 
 0.0000000000e+00  0.0000000000e+00  0.0000000000e+00  0.0000000000e+00  0.0000000000e+00 
 0.0000000000e+00  2.9575309874e+00  3.9433746498e+00  4.9292183123e+00  2.9575309874e+00 
 1.0844280287e+01  8.8725929621e+00  1.3801811274e+01  1.3801811274e+01  4.9292183123e+00 
 9.8584366245e-01  9.8584366245e-01  0.0000000000e+00  0.0000000000e+00  0.0000000000e+00 
 0.0000000000e+00  0.0000000000e+00  0.0000000000e+00  0.0000000000e+00  0.0000000000e+00 
 0.0000000000e+00  9.8584366245e-01  3.9433746498e+00  6.9009056372e+00  2.2674404236e+01 
 5.4221401435e+01  4.0419590161e+01  7.8867492996e+00  1.9716873249e+00  0.0000000000e+00 
 0.0000000000e+00  0.0000000000e+00  0.0000000000e+00  9.8584366245e-01  9.8584366245e-01 
 9.8584366245e-01  0.0000000000e+00  0.0000000000e+00  0.0000000000e+00  0.0000000000e+00 
 0.0000000000e+00  9.8584366245e-01  7.8867492996e+00  9.8584366245e+00  3.8447902836e+01 
 1.2618798879e+02  5.6193088760e+01  5.9150619747e+00  0.0000000000e+00  0.0000000000e+00 
 0.0000000000e+00  0.0000000000e+00  0.0000000000e+00  9.8584366245e-01  9.8584366245e-01 
 1.1830123949e+01  9.8584366245e-01  9.8584366245e-01  9.8584366245e-01  0.0000000000e+00 
 0.0000000000e+00  0.0000000000e+00  0.0000000000e+00  0.0000000000e+00  2.9575309874e+00 
 3.7462059173e+01  3.2532840861e+01  0.0000000000e+00  0.0000000000e+00  0.0000000000e+00 
 0.0000000000e+00  0.0000000000e+00  0.0000000000e+00  3.9433746498e+00  1.8731029587e+01 
 3.9433746498e+01  4.9292183123e+00  9.8584366245e-01  0.0000000000e+00  0.0000000000e+00 
 0.0000000000e+00  0.0000000000e+00  0.0000000000e+00  0.0000000000e+00  0.0000000000e+00 
 9.8584366245e-01  3.9433746498e+00  0.0000000000e+00  0.0000000000e+00  0.0000000000e+00 
 0.0000000000e+00  0.0000000000e+00  0.0000000000e+00  5.9150619747e+00  8.8725929621e+01 
 1.4787654937e+01  9.8584366245e-01  9.8584366245e-01  0.0000000000e+00  0.0000000000e+00 
 0.0000000000e+00  0.0000000000e+00  0.0000000000e+00  0.0000000000e+00  0.0000000000e+00 
 0.0000000000e+00  0.0000000000e+00  0.0000000000e+00  0.0000000000e+00  0.0000000000e+00 
 0.0000000000e+00  9.8584366245e-01  3.9433746498e+00  1.9716873249e+01  4.8306339460e+01 
 1.9716873249e+00  0.0000000000e+00  0.0000000000e+00  9.8584366245e-01  0.0000000000e+00 
 0.0000000000e+00  0.0000000000e+00  0.0000000000e+00  0.0000000000e+00  0.0000000000e+00 
 0.0000000000e+00  0.0000000000e+00  0.0000000000e+00  0.0000000000e+00  1.9716873249e+00 
 2.9575309874e+00  8.8725929621e+00  1.3801811274e+01  2.3660247899e+01  2.0702716912e+01 
 0.0000000000e+00  0.0000000000e+00  0.0000000000e+00  4.9292183123e+00  2.9575309874e+00 
 1.9716873249e+00  0.0000000000e+00  0.0000000000e+00  0.0000000000e+00  0.0000000000e+00 
 0.0000000000e+00  0.0000000000e+00  0.0000000000e+00  0.0000000000e+00  4.9292183123e+00 
 2.2674404236e+01  8.0839180321e+01  4.3377121148e+01  1.2815967612e+01  5.9150619747e+00 
 0.0000000000e+00  0.0000000000e+00  0.0000000000e+00  1.3801811274e+01  4.9292183123e+01 
 1.1830123949e+01  9.8584366245e-01  0.0000000000e+00  0.0000000000e+00  0.0000000000e+00 
 0.0000000000e+00  0.0000000000e+00  0.0000000000e+00  0.0000000000e+00  0.0000000000e+00 
 1.8731029587e+01  5.6193088760e+01  2.9575309874e+01  5.9150619747e+00  0.0000000000e+00 
 0.0000000000e+00  0.0000000000e+00  4.9292183123e+00  2.3660247899e+01  7.3938274684e+01 
 1.0844280287e+01  2.9575309874e+00  9.8584366245e-01  0.0000000000e+00  0.0000000000e+00 
 0.0000000000e+00  0.0000000000e+00  0.0000000000e+00  0.0000000000e+00  0.0000000000e+00 
 0.0000000000e+00  3.9433746498e+00  1.9716873249e+00  0.0000000000e+00  0.0000000000e+00 
 4.9292183123e+00  6.9009056372e+00  1.1830123949e+01  6.9009056372e+00  3.9433746498e+00 
 3.9433746498e+00  0.0000000000e+00  0.0000000000e+00  0.0000000000e+00  0.0000000000e+00 
 0.0000000000e+00  0.0000000000e+00  0.0000000000e+00  0.0000000000e+00  0.0000000000e+00 
 0.0000000000e+00  0.0000000000e+00  0.0000000000e+00  0.0000000000e+00  9.8584366245e-01 
 2.8589466211e+01  1.6759342262e+01  6.9009056372e+00  0.0000000000e+00  0.0000000000e+00 
 0.0000000000e+00  0.0000000000e+00  0.0000000000e+00  0.0000000000e+00  0.0000000000e+00 
 0.0000000000e+00  0.0000000000e+00  0.0000000000e+00  0.0000000000e+00  0.0000000000e+00 